********************************************************************************
*                       GENERAL UTILITY LATTICE PROGRAM                        *
*                                 Julian Gale                                  *
*                       Curtin Institute for Computation                       *
*                    School of Molecular and Life Sciences                     *
*                    Curtin University, Western Australia                      *
********************************************************************************
* Version = 6.0.0 * Last modified =  12th July 2021                            *
********************************************************************************
*  optimise     - perform optimisation run                                     *
*  conp         - constant pressure calculation                                *
*  conjugate    - use conjugate gradients minimiser                            *
********************************************************************************

  Job Started  at 11:25.47 29th May        2024                               

  Number of CPUs =     1


  Total number of configurations input =      1

********************************************************************************
*  Input for Configuration =   1                                               *
********************************************************************************

  Formula = Ti4O8                                                       

  Number of irreducible atoms/shells =      12


  Total number atoms/shells =      12

  Dimensionality = 3               :  Bulk   



  Cartesian lattice vectors (Angstroms) :

        4.781332   -0.718392   -0.281917
       -1.615896    5.834561   -1.346325
        0.254517    0.142577    4.951252

  Cell parameters (Angstroms/Degrees):

  a =       4.8432    alpha = 101.7141
  b =       6.2021    beta  =  90.6711
  c =       4.9598    gamma = 112.5889

  Initial cell volume =         134.024851 Angs**3

  Temperature of configuration =   0.00     K 

  Pressure of configuration =         0.000 GPa 

  Fractional coordinates of asymmetric unit :

--------------------------------------------------------------------------------
   No.  Atomic       x           y          z         Charge      Occupancy
        Label      (Frac)      (Frac)     (Frac)        (e)         (Frac)  
--------------------------------------------------------------------------------
      1 Ti    c    0.021287    0.199784    0.527275     2.19600    1.000000    
      2 Ti    c    0.555579 *  0.373743 *  0.024436 *   2.19600    1.000000    
      3 Ti    c    0.398984 *  0.877348 *  0.780652 *   2.19600    1.000000    
      4 Ti    c    0.955857 *  0.002981 *  0.349445 *   2.19600    1.000000    
      5 O     c    0.283114 *  0.114296 *  0.159477 *  -1.09800    1.000000    
      6 O     c    0.828079 *  0.114306 *  0.857944 *  -1.09800    1.000000    
      7 O     c    0.330895 *  0.422095 *  0.693776 *  -1.09800    1.000000    
      8 O     c    0.780264 *  0.422087 *  0.360769 *  -1.09800    1.000000    
      9 O     c    0.658347 *  0.778047 *  0.493604 *  -1.09800    1.000000    
     10 O     c    0.036049 *  0.608285 *  0.408745 *  -1.09800    1.000000    
     11 O     c    0.449464 *  0.608255 *  0.883500 *  -1.09800    1.000000    
     12 O     c    0.028389 *  0.778036 *  0.968395 *  -1.09800    1.000000    
--------------------------------------------------------------------------------



********************************************************************************
*  General input information                                                   *
********************************************************************************

  Species output for all configurations : 

--------------------------------------------------------------------------------
  Species    Type    Atomic    Atomic    Charge       Radii (Angs)     Library
                     Number     Mass       (e)     Cova   Ionic  VDW   Symbol
--------------------------------------------------------------------------------
    Ti       Core       22      47.88   2.196000   1.470  0.000  2.190          
    O        Core        8      16.00  -1.098000   0.730  0.000  1.360          
--------------------------------------------------------------------------------


  Lattice summation method               =    Ewald          (3-D)
                                         =    Parry          (2-D)
                                         =    Saunders et al (1-D)
  Accuracy factor for lattice sums       =   12.000


  Analytic derivatives to be used

  Time limit = Infinity

  Maximum range for interatomic potentials =    100000.000000 Angstroms

  General interatomic potentials :

--------------------------------------------------------------------------------
Atom  Types   Potential      Parameter       Value         Units   Cutoffs(Ang)
  1     2                                                            Min /  Max 
--------------------------------------------------------------------------------
Ti   c Ti   c Buckingham    Buckingham A     31120.100    eV        0.000 15.000
                            Buckingham rho  0.15400000    Ang       
                            Buckingham C     5.2500000    eV*Ang^6  
--------------------------------------------------------------------------------
O    c O    c Buckingham    Buckingham A     11782.700    eV        0.000 15.000
                            Buckingham rho  0.23400000    Ang       
                            Buckingham C     30.220000    eV*Ang^6  
--------------------------------------------------------------------------------
O    c Ti   c Buckingham    Buckingham A     16957.500    eV        0.000 15.000
                            Buckingham rho  0.19400000    Ang       
                            Buckingham C     12.590000    eV*Ang^6  
--------------------------------------------------------------------------------
Ti   c Ti   c Lennard       Lennard-Jones A  1.0000000    eV*Ang^m  0.000 15.000
                            Lennard-Jones B  0.0000000    eV*Ang^n  
                            Exponent m        12          None
                            Exponent n         6          None
--------------------------------------------------------------------------------
O    c O    c Lennard       Lennard-Jones A  1.0000000    eV*Ang^m  0.000 15.000
                            Lennard-Jones B  0.0000000    eV*Ang^n  
                            Exponent m        12          None
                            Exponent n         6          None
--------------------------------------------------------------------------------
O    c Ti   c Lennard       Lennard-Jones A  1.0000000    eV*Ang^m  0.000 15.000
                            Lennard-Jones B  0.0000000    eV*Ang^n  
                            Exponent m        12          None
                            Exponent n         6          None
--------------------------------------------------------------------------------

********************************************************************************
*  Output for configuration   1                                                *
********************************************************************************


  Components of energy : 

--------------------------------------------------------------------------------
  Interatomic potentials     =         102.60982367 eV    
  Monopole - monopole (real) =         -22.37793656 eV    
  Monopole - monopole (recip)=         -92.97272310 eV    
  Monopole - monopole (total)=        -115.35065966 eV    
--------------------------------------------------------------------------------
  Total lattice energy       =         -12.74083600 eV    
--------------------------------------------------------------------------------
  Total lattice energy       =           -1229.2959 kJ/(mole unit cells)
--------------------------------------------------------------------------------


  Number of variables =       39

  Maximum number of calculations  =          1000
  Maximum Hessian update interval =            10
  Maximum step size               =   1.000000000
  Maximum parameter tolerance     =   0.000010000
  Maximum function  tolerance     =   0.000010000
  Maximum gradient  tolerance     =   0.001000000
  Maximum gradient  component     =   0.010000000

  Symmetry not applied to optimisation

  Cell parameters to be optimised using strains

  Conjugate gradient optimiser to be used

  Lower half triangular hessian to be used

  Minimiser to switch to BFGS with exact hessian
  When gradient norm is less than     0.500000

  Start of bulk optimisation :

  Cycle:      0 Energy:       -12.740836  Gnorm:     46.157505  CPU:    0.025
  Cycle:      1 Energy:      -121.084383  Gnorm:      7.602029  CPU:    0.079
  Cycle:      2 Energy:      -136.773853  Gnorm:      2.783583  CPU:    0.106
  Cycle:      3 Energy:      -143.379525  Gnorm:      3.673284  CPU:    0.140
  Cycle:      4 Energy:      -145.549111  Gnorm:      1.599897  CPU:    0.167
  Cycle:      5 Energy:      -147.896823  Gnorm:      1.515116  CPU:    0.201
  Cycle:      6 Energy:      -149.820709  Gnorm:      1.949545  CPU:    0.225
  Cycle:      7 Energy:      -151.070108  Gnorm:      1.752469  CPU:    0.248
  Cycle:      8 Energy:      -152.273666  Gnorm:      0.719589  CPU:    0.271
  Cycle:      9 Energy:      -152.895050  Gnorm:      0.578292  CPU:    0.298
  Cycle:     10 Energy:      -153.125914  Gnorm:      0.512948  CPU:    0.321
  Cycle:     11 Energy:      -153.870918  Gnorm:      0.836205  CPU:    0.354
  Cycle:     12 Energy:      -154.869145  Gnorm:      0.788358  CPU:    0.387
  Cycle:     13 Energy:      -155.300606  Gnorm:      0.577288  CPU:    0.422
  Cycle:     14 Energy:      -155.724331  Gnorm:      0.454162  CPU:    0.458
  ** Hessian calculated **
  Cycle:     15 Energy:      -156.201723  Gnorm:      0.398342  CPU:    0.542
  ** Hessian calculated **
  Cycle:     16 Energy:      -156.444825  Gnorm:      0.279822  CPU:    0.604
  Cycle:     17 Energy:      -156.593089  Gnorm:      0.357107  CPU:    0.633
  Cycle:     18 Energy:      -156.780233  Gnorm:      0.305356  CPU:    0.662
  Cycle:     19 Energy:      -156.986017  Gnorm:      0.357245  CPU:    0.691
  Cycle:     20 Energy:      -157.131918  Gnorm:      0.260875  CPU:    0.715
  Cycle:     21 Energy:      -157.255209  Gnorm:      0.259852  CPU:    0.739
  Cycle:     22 Energy:      -157.407175  Gnorm:      0.291920  CPU:    0.769
  Cycle:     23 Energy:      -157.518130  Gnorm:      0.234175  CPU:    0.793
  Cycle:     24 Energy:      -157.620453  Gnorm:      0.192005  CPU:    0.817
  Cycle:     25 Energy:      -157.702868  Gnorm:      0.209955  CPU:    0.847
  ** Hessian calculated **
  Cycle:     26 Energy:      -157.946010  Gnorm:      0.162075  CPU:    0.913
  Cycle:     27 Energy:      -157.972029  Gnorm:      0.060002  CPU:    0.937
  Cycle:     28 Energy:      -157.982619  Gnorm:      0.028453  CPU:    0.961
  Cycle:     29 Energy:      -157.983972  Gnorm:      0.013337  CPU:    0.985
  Cycle:     30 Energy:      -157.984296  Gnorm:      0.003168  CPU:    1.009
  Cycle:     31 Energy:      -157.984315  Gnorm:      0.001537  CPU:    1.032


  **** Optimisation achieved ****


  Final energy =    -157.98431736 eV      
  Final Gnorm  =       0.00042472

  Components of energy : 

--------------------------------------------------------------------------------
  Interatomic potentials     =          12.75872934 eV    
  Monopole - monopole (real) =         -71.50957875 eV    
  Monopole - monopole (recip)=         -99.23346796 eV    
  Monopole - monopole (total)=        -170.74304670 eV    
--------------------------------------------------------------------------------
  Total lattice energy       =        -157.98431736 eV    
--------------------------------------------------------------------------------
  Total lattice energy       =          -15243.0716 kJ/(mole unit cells)
--------------------------------------------------------------------------------

  Final fractional coordinates of atoms :

--------------------------------------------------------------------------------
   No.  Atomic        x           y          z          Radius
        Label       (Frac)      (Frac)     (Frac)       (Angs) 
--------------------------------------------------------------------------------
     1  Ti    c     0.021287    0.199784    0.527275    0.000000
     2  Ti    c     0.521282    0.199780    0.027277    0.000000
     3  Ti    c     0.521189    0.699769    0.777293    0.000000
     4  Ti    c     0.021192    0.699772    0.277295    0.000000
     5  O     c     0.229318    0.115883    0.277276    0.000000
     6  O     c     0.729321    0.115881    0.777284    0.000000
     7  O     c     0.313232    0.283658    0.777250    0.000000
     8  O     c     0.813229    0.283660    0.277266    0.000000
     9  O     c     0.813158    0.783665    0.527289    0.000000
    10  O     c     0.229240    0.615875    0.527312    0.000000
    11  O     c     0.729246    0.615878    0.027309    0.000000
    12  O     c     0.313156    0.783658    0.027294    0.000000
--------------------------------------------------------------------------------

  Final Cartesian lattice vectors (Angstroms) :

        5.255776   -0.858934   -0.272574
       -1.900378    5.105150   -0.566734
        0.392780    0.731836    5.267276


  Final cell parameters and derivatives :

--------------------------------------------------------------------------------
       a            5.332471 Angstrom     dE/de1(xx)    -0.000808 eV/strain
       b            5.476786 Angstrom     dE/de2(yy)     0.001714 eV/strain
       c            5.332359 Angstrom     dE/de3(zz)    -0.002641 eV/strain
       alpha       89.991056 Degrees      dE/de4(yz)     0.000678 eV/strain
       beta        89.999915 Degrees      dE/de5(xz)    -0.001329 eV/strain
       gamma      119.134010 Degrees      dE/de6(xy)     0.000594 eV/strain
--------------------------------------------------------------------------------

  Primitive cell volume =           136.027992 Angs**3

  Density of cell =      3.900549 g/cm**3

  Non-primitive cell volume =           136.027992 Angs**3


  Final internal derivatives :

--------------------------------------------------------------------------------
   No.  Atomic          a             b             c           Radius
        Label          (eV)          (eV)          (eV)        (eV/Angs)
--------------------------------------------------------------------------------
      1 Ti    c       0.000000      0.000000      0.000000      0.000000
      2 Ti    c      -0.001824      0.005968      0.000838      0.000000
      3 Ti    c      -0.005383     -0.000476     -0.000279      0.000000
      4 Ti    c      -0.002559     -0.000089      0.000278      0.000000
      5 O     c      -0.000665      0.001947     -0.000378      0.000000
      6 O     c      -0.000796      0.001880     -0.000149      0.000000
      7 O     c       0.001668     -0.004647     -0.003385      0.000000
      8 O     c       0.006285     -0.006320      0.002987      0.000000
      9 O     c       0.002717     -0.003239     -0.000606      0.000000
     10 O     c      -0.002541      0.000031      0.000739      0.000000
     11 O     c      -0.001183      0.002307      0.001011      0.000000
     12 O     c       0.001891     -0.004038      0.000180      0.000000
--------------------------------------------------------------------------------
  Maximum abs         0.006285      0.006320      0.003385      0.000000
--------------------------------------------------------------------------------


  Time to end of optimisation =       1.0570 seconds


  Peak dynamic memory used =       1.84 MB 


  Timing analysis for GULP :

--------------------------------------------------------------------------------
  Task / Subroutine                                          Time (Seconds)
--------------------------------------------------------------------------------
  Calculation of reciprocal space energy and derivatives          0.0435
  Calculation of real space energy and derivatives                0.9971
  Calculation and manipulation of Hessian matrix                  0.0003
  Calculation of matrix inversion                                 0.0006
  Global summation overhead                                       0.0002
--------------------------------------------------------------------------------
  Total CPU time                                                  1.0571
--------------------------------------------------------------------------------


  Job Finished at 11:25.48 29th May        2024                               

