********************************************************************************
*                       GENERAL UTILITY LATTICE PROGRAM                        *
*                                 Julian Gale                                  *
*                       Curtin Institute for Computation                       *
*                    School of Molecular and Life Sciences                     *
*                    Curtin University, Western Australia                      *
********************************************************************************
* Version = 6.0.0 * Last modified =  12th July 2021                            *
********************************************************************************
*  optimise     - perform optimisation run                                     *
*  conp         - constant pressure calculation                                *
*  conjugate    - use conjugate gradients minimiser                            *
********************************************************************************

  Job Started  at 11:24.07 29th May        2024                               

  Number of CPUs =     1


  Total number of configurations input =      1

********************************************************************************
*  Input for Configuration =   1                                               *
********************************************************************************

  Formula = Ti4O8                                                       

  Number of irreducible atoms/shells =      12


  Total number atoms/shells =      12

  Dimensionality = 3               :  Bulk   



  Cartesian lattice vectors (Angstroms) :

        4.813511    0.582238   -0.262742
       -0.739734    5.224723   -0.434522
        0.200830    0.464578    5.189139

  Cell parameters (Angstroms/Degrees):

  a =       4.8557    alpha =  89.9503
  b =       5.2947    beta  =  90.2856
  c =       5.2138    gamma =  90.9016

  Initial cell volume =         134.024851 Angs**3

  Temperature of configuration =   0.00     K 

  Pressure of configuration =         0.000 GPa 

  Fractional coordinates of asymmetric unit :

--------------------------------------------------------------------------------
   No.  Atomic       x           y          z         Charge      Occupancy
        Label      (Frac)      (Frac)     (Frac)        (e)         (Frac)  
--------------------------------------------------------------------------------
      1 Ti    c    0.355929    0.398179    0.274625     2.19600    1.000000    
      2 Ti    c    0.874804 *  0.398179 *  0.793499 *   2.19600    1.000000    
      3 Ti    c    0.896071 *  0.770814 *  0.969949 *   2.19600    1.000000    
      4 Ti    c    0.468563 *  0.555326 *  0.813787 *   2.19600    1.000000    
      5 O     c    0.562637 *  0.247940 *  0.943739 *  -1.09800    1.000000    
      6 O     c    0.724563 *  0.247941 *  0.424865 *  -1.09800    1.000000    
      7 O     c    0.205690 *  0.086013 *  0.424865 *  -1.09800    1.000000    
      8 O     c    0.043764 *  0.086013 *  0.943739 *  -1.09800    1.000000    
      9 O     c    0.896067 *  0.555318 *  0.496983 *  -1.09800    1.000000    
     10 O     c    0.468561 *  0.770807 *  0.305483 *  -1.09800    1.000000    
     11 O     c    0.682315 *  0.509326 *  0.147079 *  -1.09800    1.000000    
     12 O     c    0.682316 *  0.816807 *  0.655382 *  -1.09800    1.000000    
--------------------------------------------------------------------------------



********************************************************************************
*  General input information                                                   *
********************************************************************************

  Species output for all configurations : 

--------------------------------------------------------------------------------
  Species    Type    Atomic    Atomic    Charge       Radii (Angs)     Library
                     Number     Mass       (e)     Cova   Ionic  VDW   Symbol
--------------------------------------------------------------------------------
    Ti       Core       22      47.88   2.196000   1.470  0.000  2.190          
    O        Core        8      16.00  -1.098000   0.730  0.000  1.360          
--------------------------------------------------------------------------------


  Lattice summation method               =    Ewald          (3-D)
                                         =    Parry          (2-D)
                                         =    Saunders et al (1-D)
  Accuracy factor for lattice sums       =   12.000


  Analytic derivatives to be used

  Time limit = Infinity

  Maximum range for interatomic potentials =    100000.000000 Angstroms

  General interatomic potentials :

--------------------------------------------------------------------------------
Atom  Types   Potential      Parameter       Value         Units   Cutoffs(Ang)
  1     2                                                            Min /  Max 
--------------------------------------------------------------------------------
Ti   c Ti   c Buckingham    Buckingham A     31120.100    eV        0.000 15.000
                            Buckingham rho  0.15400000    Ang       
                            Buckingham C     5.2500000    eV*Ang^6  
--------------------------------------------------------------------------------
O    c O    c Buckingham    Buckingham A     11782.700    eV        0.000 15.000
                            Buckingham rho  0.23400000    Ang       
                            Buckingham C     30.220000    eV*Ang^6  
--------------------------------------------------------------------------------
O    c Ti   c Buckingham    Buckingham A     16957.500    eV        0.000 15.000
                            Buckingham rho  0.19400000    Ang       
                            Buckingham C     12.590000    eV*Ang^6  
--------------------------------------------------------------------------------
Ti   c Ti   c Lennard       Lennard-Jones A  1.0000000    eV*Ang^m  0.000 15.000
                            Lennard-Jones B  0.0000000    eV*Ang^n  
                            Exponent m        12          None
                            Exponent n         6          None
--------------------------------------------------------------------------------
O    c O    c Lennard       Lennard-Jones A  1.0000000    eV*Ang^m  0.000 15.000
                            Lennard-Jones B  0.0000000    eV*Ang^n  
                            Exponent m        12          None
                            Exponent n         6          None
--------------------------------------------------------------------------------
O    c Ti   c Lennard       Lennard-Jones A  1.0000000    eV*Ang^m  0.000 15.000
                            Lennard-Jones B  0.0000000    eV*Ang^n  
                            Exponent m        12          None
                            Exponent n         6          None
--------------------------------------------------------------------------------

********************************************************************************
*  Output for configuration   1                                                *
********************************************************************************


  Components of energy : 

--------------------------------------------------------------------------------
  Interatomic potentials     =          25.32813417 eV    
  Monopole - monopole (real) =         -32.17179120 eV    
  Monopole - monopole (recip)=         -89.99268608 eV    
  Monopole - monopole (total)=        -122.16447728 eV    
--------------------------------------------------------------------------------
  Total lattice energy       =         -96.83634311 eV    
--------------------------------------------------------------------------------
  Total lattice energy       =           -9343.2268 kJ/(mole unit cells)
--------------------------------------------------------------------------------


  Number of variables =       39

  Maximum number of calculations  =          1000
  Maximum Hessian update interval =            10
  Maximum step size               =   1.000000000
  Maximum parameter tolerance     =   0.000010000
  Maximum function  tolerance     =   0.000010000
  Maximum gradient  tolerance     =   0.001000000
  Maximum gradient  component     =   0.010000000

  Symmetry not applied to optimisation

  Cell parameters to be optimised using strains

  Conjugate gradient optimiser to be used

  Lower half triangular hessian to be used

  Minimiser to switch to BFGS with exact hessian
  When gradient norm is less than     0.500000

  Start of bulk optimisation :

  Cycle:      0 Energy:       -96.836343  Gnorm:      7.686465  CPU:    0.021
  Cycle:      1 Energy:      -128.043970  Gnorm:      3.285716  CPU:    0.048
  Cycle:      2 Energy:      -137.590553  Gnorm:      2.262099  CPU:    0.070
  Cycle:      3 Energy:      -140.403764  Gnorm:      1.473933  CPU:    0.088
  Cycle:      4 Energy:      -143.682146  Gnorm:      1.513169  CPU:    0.111
  Cycle:      5 Energy:      -145.268517  Gnorm:      1.370897  CPU:    0.129
  Cycle:      6 Energy:      -147.153153  Gnorm:      1.003541  CPU:    0.156
  Cycle:      7 Energy:      -148.427096  Gnorm:      1.030832  CPU:    0.179
  Cycle:      8 Energy:      -150.274919  Gnorm:      1.213839  CPU:    0.204
  Cycle:      9 Energy:      -151.694078  Gnorm:      1.169737  CPU:    0.225
  Cycle:     10 Energy:      -152.657801  Gnorm:      0.605938  CPU:    0.246
  Cycle:     11 Energy:      -153.506532  Gnorm:      0.853691  CPU:    0.280
  Cycle:     12 Energy:      -154.185682  Gnorm:      0.652453  CPU:    0.302
  Cycle:     13 Energy:      -154.603483  Gnorm:      0.341169  CPU:    0.328
  ** Hessian calculated **
  Cycle:     14 Energy:      -154.773567  Gnorm:      0.304205  CPU:    0.388
  Cycle:     15 Energy:      -155.098831  Gnorm:      0.416380  CPU:    0.414
  Cycle:     16 Energy:      -155.489655  Gnorm:      0.537693  CPU:    0.441
  Cycle:     17 Energy:      -155.791580  Gnorm:      0.393489  CPU:    0.463
  Cycle:     18 Energy:      -156.049392  Gnorm:      0.289296  CPU:    0.488
  Cycle:     19 Energy:      -156.222300  Gnorm:      0.249133  CPU:    0.520
  Cycle:     20 Energy:      -156.367795  Gnorm:      0.190921  CPU:    0.552
  Cycle:     21 Energy:      -156.479872  Gnorm:      0.249944  CPU:    0.580
  Cycle:     22 Energy:      -156.610528  Gnorm:      0.211072  CPU:    0.609
  Cycle:     23 Energy:      -156.740629  Gnorm:      0.226550  CPU:    0.637
  ** Hessian calculated **
  Cycle:     24 Energy:      -156.838102  Gnorm:      0.166960  CPU:    0.708
  Cycle:     25 Energy:      -156.908816  Gnorm:      0.179749  CPU:    0.737
  Cycle:     26 Energy:      -156.976617  Gnorm:      0.171884  CPU:    0.766
  Cycle:     27 Energy:      -157.029904  Gnorm:      0.120621  CPU:    0.789
  Cycle:     28 Energy:      -157.062435  Gnorm:      0.091756  CPU:    0.813
  Cycle:     29 Energy:      -157.098083  Gnorm:      0.087473  CPU:    0.842
  Cycle:     30 Energy:      -157.125160  Gnorm:      0.106684  CPU:    0.871
  Cycle:     31 Energy:      -157.215947  Gnorm:      0.211353  CPU:    0.905
  Cycle:     32 Energy:      -157.273136  Gnorm:      0.235953  CPU:    0.929
  Cycle:     33 Energy:      -157.377615  Gnorm:      0.182407  CPU:    0.952
  ** Hessian calculated **
  Cycle:     34 Energy:      -157.521174  Gnorm:      0.252402  CPU:    1.023
  Cycle:     35 Energy:      -157.689746  Gnorm:      0.257039  CPU:    1.052
  Cycle:     36 Energy:      -157.787064  Gnorm:      0.167520  CPU:    1.076
  Cycle:     37 Energy:      -157.829945  Gnorm:      0.121002  CPU:    1.099
  Cycle:     38 Energy:      -157.861338  Gnorm:      0.116115  CPU:    1.128
  Cycle:     39 Energy:      -157.890555  Gnorm:      0.091159  CPU:    1.151
  Cycle:     40 Energy:      -157.913592  Gnorm:      0.077394  CPU:    1.180
  Cycle:     41 Energy:      -157.931853  Gnorm:      0.090988  CPU:    1.203
  Cycle:     42 Energy:      -157.954451  Gnorm:      0.113719  CPU:    1.231
  Cycle:     43 Energy:      -158.039422  Gnorm:      0.233025  CPU:    1.265
  ** Hessian calculated **
  Cycle:     44 Energy:      -158.129777  Gnorm:      0.151717  CPU:    1.330
  Cycle:     45 Energy:      -158.196393  Gnorm:      0.152809  CPU:    1.358
  Cycle:     46 Energy:      -158.272040  Gnorm:      0.124382  CPU:    1.386
  Cycle:     47 Energy:      -158.309479  Gnorm:      0.089767  CPU:    1.410
  Cycle:     48 Energy:      -158.331323  Gnorm:      0.075991  CPU:    1.433
  Cycle:     49 Energy:      -158.348830  Gnorm:      0.066697  CPU:    1.461
  Cycle:     50 Energy:      -158.366596  Gnorm:      0.067978  CPU:    1.490
  Cycle:     51 Energy:      -158.383285  Gnorm:      0.061722  CPU:    1.518
  Cycle:     52 Energy:      -158.392305  Gnorm:      0.040640  CPU:    1.541
  Cycle:     53 Energy:      -158.395463  Gnorm:      0.031228  CPU:    1.564
  ** Hessian calculated **
  Cycle:     54 Energy:      -158.410232  Gnorm:      0.011221  CPU:    1.640
  Cycle:     55 Energy:      -158.412007  Gnorm:      0.002016  CPU:    1.663
  Cycle:     56 Energy:      -158.412023  Gnorm:      0.000195  CPU:    1.686


  **** Optimisation achieved ****


  Final energy =    -158.41202342 eV      
  Final Gnorm  =       0.00000944

  Components of energy : 

--------------------------------------------------------------------------------
  Interatomic potentials     =          11.73710344 eV    
  Monopole - monopole (real) =         -64.16879694 eV    
  Monopole - monopole (recip)=        -105.98032992 eV    
  Monopole - monopole (total)=        -170.14912686 eV    
--------------------------------------------------------------------------------
  Total lattice energy       =        -158.41202342 eV    
--------------------------------------------------------------------------------
  Total lattice energy       =          -15284.3387 kJ/(mole unit cells)
--------------------------------------------------------------------------------

  Final fractional coordinates of atoms :

--------------------------------------------------------------------------------
   No.  Atomic        x           y          z          Radius
        Label       (Frac)      (Frac)     (Frac)       (Angs) 
--------------------------------------------------------------------------------
     1  Ti    c     0.355929    0.398179    0.274625    0.000000
     2  Ti    c     0.855929    0.398179    0.774625    0.000000
     3  Ti    c     0.855929    0.898179    0.274625    0.000000
     4  Ti    c     0.355929    0.898179    0.774625    0.000000
     5  O     c     0.518382    0.235725    0.937079    0.000000
     6  O     c     0.693476    0.235725    0.437079    0.000000
     7  O     c     0.193476    0.060632    0.437079    0.000000
     8  O     c     0.018382    0.060632    0.937079    0.000000
     9  O     c     0.193475    0.560632    0.612172    0.000000
    10  O     c     0.518382    0.735725    0.112172    0.000000
    11  O     c     0.018382    0.560633    0.112172    0.000000
    12  O     c     0.693475    0.735726    0.612172    0.000000
--------------------------------------------------------------------------------

  Final Cartesian lattice vectors (Angstroms) :

        4.776485    0.618682   -0.253641
       -0.638366    4.763716   -0.401802
        0.198979    0.431492    4.799599


  Final cell parameters and derivatives :

--------------------------------------------------------------------------------
       a            4.823060 Angstrom     dE/de1(xx)     0.000013 eV/strain
       b            4.823064 Angstrom     dE/de2(yy)     0.000113 eV/strain
       c            4.823062 Angstrom     dE/de3(zz)     0.000052 eV/strain
       alpha       90.000000 Degrees      dE/de4(yz)    -0.000025 eV/strain
       beta        90.000000 Degrees      dE/de5(xz)     0.000025 eV/strain
       gamma       90.000021 Degrees      dE/de6(xy)    -0.000057 eV/strain
--------------------------------------------------------------------------------

  Primitive cell volume =           112.193711 Angs**3

  Density of cell =      4.729177 g/cm**3

  Non-primitive cell volume =           112.193711 Angs**3


  Final internal derivatives :

--------------------------------------------------------------------------------
   No.  Atomic          a             b             c           Radius
        Label          (eV)          (eV)          (eV)        (eV/Angs)
--------------------------------------------------------------------------------
      1 Ti    c       0.000000      0.000000      0.000000      0.000000
      2 Ti    c       0.000022      0.000010     -0.000008      0.000000
      3 Ti    c       0.000009     -0.000024     -0.000112      0.000000
      4 Ti    c       0.000057     -0.000049      0.000052      0.000000
      5 O     c      -0.000037     -0.000012      0.000013      0.000000
      6 O     c       0.000159     -0.000065      0.000169      0.000000
      7 O     c       0.000001     -0.000001      0.000051      0.000000
      8 O     c      -0.000100     -0.000020     -0.000002      0.000000
      9 O     c      -0.000010     -0.000020     -0.000002      0.000000
     10 O     c      -0.000020     -0.000015      0.000026      0.000000
     11 O     c       0.000001     -0.000008      0.000034      0.000000
     12 O     c      -0.000042      0.000125     -0.000007      0.000000
--------------------------------------------------------------------------------
  Maximum abs         0.000159      0.000125      0.000169      0.000000
--------------------------------------------------------------------------------


  Time to end of optimisation =       1.7095 seconds


  Peak dynamic memory used =       1.84 MB 


  Timing analysis for GULP :

--------------------------------------------------------------------------------
  Task / Subroutine                                          Time (Seconds)
--------------------------------------------------------------------------------
  Calculation of reciprocal space energy and derivatives          0.0757
  Calculation of real space energy and derivatives                1.6127
  Calculation and manipulation of Hessian matrix                  0.0005
  Calculation of matrix inversion                                 0.0010
  Global summation overhead                                       0.0004
--------------------------------------------------------------------------------
  Total CPU time                                                  1.7095
--------------------------------------------------------------------------------


  Job Finished at 11:24.09 29th May        2024                               

