********************************************************************************
*                       GENERAL UTILITY LATTICE PROGRAM                        *
*                                 Julian Gale                                  *
*                       Curtin Institute for Computation                       *
*                    School of Molecular and Life Sciences                     *
*                    Curtin University, Western Australia                      *
********************************************************************************
* Version = 6.0.0 * Last modified =  12th July 2021                            *
********************************************************************************
*  optimise     - perform optimisation run                                     *
*  conp         - constant pressure calculation                                *
*  conjugate    - use conjugate gradients minimiser                            *
********************************************************************************

  Job Started  at 11:23.51 29th May        2024                               

  Number of CPUs =     1


  Total number of configurations input =      1

********************************************************************************
*  Input for Configuration =   1                                               *
********************************************************************************

  Formula = Ti4O8                                                       

  Number of irreducible atoms/shells =      12


  Total number atoms/shells =      12

  Dimensionality = 3               :  Bulk   



  Cartesian lattice vectors (Angstroms) :

        4.544838    0.759641   -0.030187
       -4.169625    7.389745   -5.392255
        2.651169   -3.136543    6.028277

  Cell parameters (Angstroms/Degrees):

  a =       4.6080    alpha = 155.5171
  b =      10.0534    beta  =  73.6098
  c =       7.2943    gamma = 106.5215

  Initial cell volume =         134.024851 Angs**3

  Temperature of configuration =   0.00     K 

  Pressure of configuration =         0.000 GPa 

  Fractional coordinates of asymmetric unit :

--------------------------------------------------------------------------------
   No.  Atomic       x           y          z         Charge      Occupancy
        Label      (Frac)      (Frac)     (Frac)        (e)         (Frac)  
--------------------------------------------------------------------------------
      1 Ti    c    0.167182    0.961357    0.530350     2.19600    1.000000    
      2 Ti    c    0.562401 *  0.356568 *  0.530358 *   2.19600    1.000000    
      3 Ti    c    0.095321 *  0.812601 *  0.847220 *   2.19600    1.000000    
      4 Ti    c    0.749746 *  0.832515 *  0.757915 *   2.19600    1.000000    
      5 O     c    0.858762 *  0.411300 *  0.156069 *  -1.09800    1.000000    
      6 O     c    0.308089 *  0.667694 *  0.341893 *  -1.09800    1.000000    
      7 O     c    0.912857 *  0.016089 *  0.156068 *  -1.09800    1.000000    
      8 O     c    0.253971 *  0.104938 *  0.341872 *  -1.09800    1.000000    
      9 O     c    0.537095 *  0.461399 *  0.970572 *  -1.09800    1.000000    
     10 O     c    0.351202 *  0.282493 *  0.901559 *  -1.09800    1.000000    
     11 O     c    0.882502 *  0.441519 *  0.059859 *  -1.09800    1.000000    
     12 O     c    0.351060 *  0.866328 *  0.901590 *  -1.09800    1.000000    
--------------------------------------------------------------------------------



********************************************************************************
*  General input information                                                   *
********************************************************************************

  Species output for all configurations : 

--------------------------------------------------------------------------------
  Species    Type    Atomic    Atomic    Charge       Radii (Angs)     Library
                     Number     Mass       (e)     Cova   Ionic  VDW   Symbol
--------------------------------------------------------------------------------
    Ti       Core       22      47.88   2.196000   1.470  0.000  2.190          
    O        Core        8      16.00  -1.098000   0.730  0.000  1.360          
--------------------------------------------------------------------------------


  Lattice summation method               =    Ewald          (3-D)
                                         =    Parry          (2-D)
                                         =    Saunders et al (1-D)
  Accuracy factor for lattice sums       =   12.000


  Analytic derivatives to be used

  Time limit = Infinity

  Maximum range for interatomic potentials =    100000.000000 Angstroms

  General interatomic potentials :

--------------------------------------------------------------------------------
Atom  Types   Potential      Parameter       Value         Units   Cutoffs(Ang)
  1     2                                                            Min /  Max 
--------------------------------------------------------------------------------
Ti   c Ti   c Buckingham    Buckingham A     31120.100    eV        0.000 15.000
                            Buckingham rho  0.15400000    Ang       
                            Buckingham C     5.2500000    eV*Ang^6  
--------------------------------------------------------------------------------
O    c O    c Buckingham    Buckingham A     11782.700    eV        0.000 15.000
                            Buckingham rho  0.23400000    Ang       
                            Buckingham C     30.220000    eV*Ang^6  
--------------------------------------------------------------------------------
O    c Ti   c Buckingham    Buckingham A     16957.500    eV        0.000 15.000
                            Buckingham rho  0.19400000    Ang       
                            Buckingham C     12.590000    eV*Ang^6  
--------------------------------------------------------------------------------
Ti   c Ti   c Lennard       Lennard-Jones A  1.0000000    eV*Ang^m  0.000 15.000
                            Lennard-Jones B  0.0000000    eV*Ang^n  
                            Exponent m        12          None
                            Exponent n         6          None
--------------------------------------------------------------------------------
O    c O    c Lennard       Lennard-Jones A  1.0000000    eV*Ang^m  0.000 15.000
                            Lennard-Jones B  0.0000000    eV*Ang^n  
                            Exponent m        12          None
                            Exponent n         6          None
--------------------------------------------------------------------------------
O    c Ti   c Lennard       Lennard-Jones A  1.0000000    eV*Ang^m  0.000 15.000
                            Lennard-Jones B  0.0000000    eV*Ang^n  
                            Exponent m        12          None
                            Exponent n         6          None
--------------------------------------------------------------------------------

********************************************************************************
*  Output for configuration   1                                                *
********************************************************************************


  Components of energy : 

--------------------------------------------------------------------------------
  Interatomic potentials     =         320.69608979 eV    
  Monopole - monopole (real) =         -32.51992737 eV    
  Monopole - monopole (recip)=         -87.44835831 eV    
  Monopole - monopole (total)=        -119.96828568 eV    
--------------------------------------------------------------------------------
  Total lattice energy       =         200.72780410 eV    
--------------------------------------------------------------------------------
  Total lattice energy       =           19367.1647 kJ/(mole unit cells)
--------------------------------------------------------------------------------


  Number of variables =       39

  Maximum number of calculations  =          1000
  Maximum Hessian update interval =            10
  Maximum step size               =   1.000000000
  Maximum parameter tolerance     =   0.000010000
  Maximum function  tolerance     =   0.000010000
  Maximum gradient  tolerance     =   0.001000000
  Maximum gradient  component     =   0.010000000

  Symmetry not applied to optimisation

  Cell parameters to be optimised using strains

  Conjugate gradient optimiser to be used

  Lower half triangular hessian to be used

  Minimiser to switch to BFGS with exact hessian
  When gradient norm is less than     0.500000

  Start of bulk optimisation :

  Cycle:      0 Energy:       200.727804  Gnorm:    281.106455  CPU:    0.042
  Cycle:      1 Energy:       -47.637763  Gnorm:     27.177175  CPU:    0.146
  Cycle:      2 Energy:      -122.285072  Gnorm:      8.139813  CPU:    0.213
  Cycle:      3 Energy:      -133.229722  Gnorm:      3.837037  CPU:    0.258
  Cycle:      4 Energy:      -135.264458  Gnorm:      3.004877  CPU:    0.302
  Cycle:      5 Energy:      -136.859530  Gnorm:      2.370006  CPU:    0.357
  Cycle:      6 Energy:      -139.391875  Gnorm:      2.634594  CPU:    0.411
  Cycle:      7 Energy:      -144.114875  Gnorm:      2.715050  CPU:    0.474
  Cycle:      8 Energy:      -145.806242  Gnorm:      1.614116  CPU:    0.517
  Cycle:      9 Energy:      -146.434822  Gnorm:      1.298750  CPU:    0.570
  Cycle:     10 Energy:      -146.842021  Gnorm:      1.020920  CPU:    0.623
  Cycle:     11 Energy:      -147.552450  Gnorm:      1.105582  CPU:    0.677
  Cycle:     12 Energy:      -148.191348  Gnorm:      1.167628  CPU:    0.722
  Cycle:     13 Energy:      -149.047904  Gnorm:      1.241292  CPU:    0.779
  Cycle:     14 Energy:      -149.511517  Gnorm:      0.958154  CPU:    0.826
  Cycle:     15 Energy:      -149.891162  Gnorm:      0.949307  CPU:    0.884
  Cycle:     16 Energy:      -150.191665  Gnorm:      0.901066  CPU:    0.932
  Cycle:     17 Energy:      -150.648436  Gnorm:      0.925811  CPU:    0.991
  Cycle:     18 Energy:      -151.018184  Gnorm:      0.808058  CPU:    1.042
  Cycle:     19 Energy:      -151.320403  Gnorm:      0.689559  CPU:    1.100
  Cycle:     20 Energy:      -151.456812  Gnorm:      0.532867  CPU:    1.154
  Cycle:     21 Energy:      -151.644670  Gnorm:      0.635635  CPU:    1.215
  Cycle:     22 Energy:      -151.899853  Gnorm:      0.685578  CPU:    1.293
  Cycle:     23 Energy:      -152.192529  Gnorm:      0.676921  CPU:    1.349
  Cycle:     24 Energy:      -152.361585  Gnorm:      0.765749  CPU:    1.403
  Cycle:     25 Energy:      -152.571947  Gnorm:      0.661114  CPU:    1.449
  Cycle:     26 Energy:      -152.810226  Gnorm:      0.573063  CPU:    1.492
  Cycle:     27 Energy:      -152.942749  Gnorm:      0.679763  CPU:    1.531
  Cycle:     28 Energy:      -153.183743  Gnorm:      0.645067  CPU:    1.574
  Cycle:     29 Energy:      -153.430231  Gnorm:      0.671417  CPU:    1.617
  Cycle:     30 Energy:      -153.536424  Gnorm:      0.499069  CPU:    1.655
  ** Hessian calculated **
  Cycle:     31 Energy:      -153.738480  Gnorm:      0.625884  CPU:    1.729
  Cycle:     32 Energy:      -153.872153  Gnorm:      0.329172  CPU:    1.775
  Cycle:     33 Energy:      -153.980016  Gnorm:      0.432734  CPU:    1.823
  Cycle:     34 Energy:      -154.208402  Gnorm:      0.661883  CPU:    1.868
  Cycle:     35 Energy:      -154.505716  Gnorm:      0.463150  CPU:    1.913
  Cycle:     36 Energy:      -154.694394  Gnorm:      0.424872  CPU:    1.950
  Cycle:     37 Energy:      -154.813321  Gnorm:      0.380339  CPU:    1.988
  Cycle:     38 Energy:      -154.910641  Gnorm:      0.341634  CPU:    2.027
  Cycle:     39 Energy:      -154.996323  Gnorm:      0.313592  CPU:    2.055
  Cycle:     40 Energy:      -155.058811  Gnorm:      0.238312  CPU:    2.089
  ** Hessian calculated **
  Cycle:     41 Energy:      -155.338311  Gnorm:      0.149683  CPU:    2.168
  Cycle:     42 Energy:      -155.352021  Gnorm:      0.136076  CPU:    2.196
  ** Hessian calculated **
  Cycle:     43 Energy:      -155.364206  Gnorm:      0.083301  CPU:    2.262
  Cycle:     44 Energy:      -155.370339  Gnorm:      0.092736  CPU:    2.296
  Cycle:     45 Energy:      -155.375934  Gnorm:      0.066668  CPU:    2.330
  Cycle:     46 Energy:      -155.382395  Gnorm:      0.104652  CPU:    2.365
  Cycle:     47 Energy:      -155.391180  Gnorm:      0.109658  CPU:    2.399
  Cycle:     48 Energy:      -155.405624  Gnorm:      0.190199  CPU:    2.433
  Cycle:     49 Energy:      -155.430653  Gnorm:      0.170799  CPU:    2.467
  Cycle:     50 Energy:      -155.460937  Gnorm:      0.166383  CPU:    2.496
  Cycle:     51 Energy:      -155.483864  Gnorm:      0.134004  CPU:    2.530
  Cycle:     52 Energy:      -155.498411  Gnorm:      0.098369  CPU:    2.565
  ** Hessian calculated **
  Cycle:     53 Energy:      -155.509184  Gnorm:      0.130459  CPU:    2.638
  Cycle:     54 Energy:      -155.518766  Gnorm:      0.102039  CPU:    2.672
  Cycle:     55 Energy:      -155.528854  Gnorm:      0.113575  CPU:    2.707
  Cycle:     56 Energy:      -155.535137  Gnorm:      0.077812  CPU:    2.735
  Cycle:     57 Energy:      -155.539061  Gnorm:      0.071755  CPU:    2.763
  Cycle:     58 Energy:      -155.545442  Gnorm:      0.081395  CPU:    2.798
  Cycle:     59 Energy:      -155.553137  Gnorm:      0.089897  CPU:    2.832
  Cycle:     60 Energy:      -155.560641  Gnorm:      0.079358  CPU:    2.867
  Cycle:     61 Energy:      -155.565189  Gnorm:      0.094500  CPU:    2.895
  Cycle:     62 Energy:      -155.572491  Gnorm:      0.097168  CPU:    2.929
  ** Hessian calculated **
  Cycle:     63 Energy:      -155.575911  Gnorm:      0.070745  CPU:    2.997
  Cycle:     64 Energy:      -155.580000  Gnorm:      0.080742  CPU:    3.032
  Cycle:     65 Energy:      -155.585463  Gnorm:      0.067777  CPU:    3.066
  Cycle:     66 Energy:      -155.590207  Gnorm:      0.092089  CPU:    3.094
  Cycle:     67 Energy:      -155.599525  Gnorm:      0.089021  CPU:    3.129
  Cycle:     68 Energy:      -155.610084  Gnorm:      0.113692  CPU:    3.164
  Cycle:     69 Energy:      -155.623050  Gnorm:      0.160157  CPU:    3.199
  Cycle:     70 Energy:      -155.657287  Gnorm:      0.202294  CPU:    3.234
  Cycle:     71 Energy:      -155.720622  Gnorm:      0.229671  CPU:    3.268
  Cycle:     72 Energy:      -155.818899  Gnorm:      0.350708  CPU:    3.303
  ** Hessian calculated **
  Cycle:     73 Energy:      -155.917706  Gnorm:      0.463157  CPU:    3.384
  Cycle:     74 Energy:      -156.027680  Gnorm:      0.399485  CPU:    3.420
  Cycle:     75 Energy:      -156.147325  Gnorm:      0.296669  CPU:    3.458
  Cycle:     76 Energy:      -156.204116  Gnorm:      0.249100  CPU:    3.487
  Cycle:     77 Energy:      -156.241361  Gnorm:      0.166126  CPU:    3.516
  Cycle:     78 Energy:      -156.272060  Gnorm:      0.170486  CPU:    3.555
  Cycle:     79 Energy:      -156.309276  Gnorm:      0.170664  CPU:    3.590
  Cycle:     80 Energy:      -156.338766  Gnorm:      0.199183  CPU:    3.618
  Cycle:     81 Energy:      -156.358105  Gnorm:      0.138136  CPU:    3.651
  Cycle:     82 Energy:      -156.374377  Gnorm:      0.106366  CPU:    3.686
  ** Hessian calculated **
  Cycle:     83 Energy:      -156.461469  Gnorm:      0.097674  CPU:    3.777
  Cycle:     84 Energy:      -156.571534  Gnorm:      0.058673  CPU:    3.818
  Cycle:     85 Energy:      -156.634375  Gnorm:      0.052473  CPU:    3.853
  Cycle:     86 Energy:      -156.641681  Gnorm:      0.039309  CPU:    3.888
  Cycle:     87 Energy:      -156.643829  Gnorm:      0.014540  CPU:    3.923
  Cycle:     88 Energy:      -156.644148  Gnorm:      0.004677  CPU:    3.956
  Cycle:     89 Energy:      -156.644176  Gnorm:      0.003268  CPU:    3.997
  Cycle:     90 Energy:      -156.644190  Gnorm:      0.001417  CPU:    4.039
  Cycle:     91 Energy:      -156.644192  Gnorm:      0.001583  CPU:    4.071
  Cycle:     92 Energy:      -156.644192  Gnorm:      0.001503  CPU:    4.126
  ** Hessian calculated **
  Cycle:     93 Energy:      -156.644192  Gnorm:      0.001503  CPU:    4.255
  ** Hessian calculated **


  **** Conditions for a minimum have not been satisfied. However ****
  **** no lower point can be found - treat results with caution  ****
  **** unless gradient norm is small (less than 0.1)             ****


  Final energy =    -156.64419228 eV      
  Final Gnorm  =       0.00150293

  Components of energy : 

--------------------------------------------------------------------------------
  Interatomic potentials     =          12.27132286 eV    
  Monopole - monopole (real) =         -67.30190128 eV    
  Monopole - monopole (recip)=        -101.61361386 eV    
  Monopole - monopole (total)=        -168.91551514 eV    
--------------------------------------------------------------------------------
  Total lattice energy       =        -156.64419228 eV    
--------------------------------------------------------------------------------
  Total lattice energy       =          -15113.7700 kJ/(mole unit cells)
--------------------------------------------------------------------------------

  Final fractional coordinates of atoms :

--------------------------------------------------------------------------------
   No.  Atomic        x           y          z          Radius
        Label       (Frac)      (Frac)     (Frac)       (Angs) 
--------------------------------------------------------------------------------
     1  Ti    c     0.167182    0.961357    0.530350    0.000000
     2  Ti    c     0.667235    0.267087    0.641822    0.000000
     3  Ti    c     0.167233    0.809861    0.878883    0.000000
     4  Ti    c     0.667277    0.115538    0.990254    0.000000
     5  O     c     0.931288    0.381788    0.224364    0.000000
     6  O     c     0.903265    0.695041    0.296144    0.000000
     7  O     c     0.903313    0.140367    0.241468    0.000000
     8  O     c     0.403134    0.936822    0.279583    0.000000
     9  O     c     0.431243    0.695019    0.295972    0.000000
    10  O     c     0.403308    0.381936    0.224664    0.000000
    11  O     c     0.931133    0.936524    0.279109    0.000000
    12  O     c     0.431296    0.140111    0.241073    0.000000
--------------------------------------------------------------------------------

  Final Cartesian lattice vectors (Angstroms) :

        4.859645    1.366663   -0.509781
       -3.044124    8.848169   -5.303849
        1.783677   -4.360691    5.320621


  Final cell parameters and derivatives :

--------------------------------------------------------------------------------
       a            5.073835 Angstrom     dE/de1(xx)     0.002235 eV/strain
       b           10.755817 Angstrom     dE/de2(yy)     0.003733 eV/strain
       c            7.106767 Angstrom     dE/de3(zz)    -0.004303 eV/strain
       alpha      160.905966 Degrees      dE/de4(yz)    -0.002310 eV/strain
       beta        90.006211 Degrees      dE/de5(xz)     0.005122 eV/strain
       gamma       89.996953 Degrees      dE/de6(xy)    -0.002864 eV/strain
--------------------------------------------------------------------------------

  Primitive cell volume =           126.869798 Angs**3

  Density of cell =      4.182113 g/cm**3

  Non-primitive cell volume =           126.869798 Angs**3


  Final internal derivatives :

--------------------------------------------------------------------------------
   No.  Atomic          a             b             c           Radius
        Label          (eV)          (eV)          (eV)        (eV/Angs)
--------------------------------------------------------------------------------
      1 Ti    c       0.000000      0.000000      0.000000      0.000000
      2 Ti    c       0.001816     -0.006762      0.006449      0.000000
      3 Ti    c      -0.001519     -0.014656      0.018608      0.000000
      4 Ti    c       0.001589     -0.014669      0.006051      0.000000
      5 O     c       0.011276      0.008937     -0.017660      0.000000
      6 O     c       0.002528      0.003551      0.005460      0.000000
      7 O     c       0.002109      0.003245      0.001576      0.000000
      8 O     c      -0.010941     -0.007353      0.005629      0.000000
      9 O     c      -0.001822      0.001320     -0.000761      0.000000
     10 O     c       0.012082      0.017071     -0.015646      0.000000
     11 O     c       0.000755      0.022924     -0.018070      0.000000
     12 O     c      -0.000535     -0.009774      0.004822      0.000000
--------------------------------------------------------------------------------
  Maximum abs         0.012082      0.022924      0.018608      0.000000
--------------------------------------------------------------------------------


  Time to end of optimisation =       4.3850 seconds


  Peak dynamic memory used =       1.84 MB 


  Timing analysis for GULP :

--------------------------------------------------------------------------------
  Task / Subroutine                                          Time (Seconds)
--------------------------------------------------------------------------------
  Calculation of reciprocal space energy and derivatives          0.1378
  Calculation of real space energy and derivatives                4.2074
  Calculation and manipulation of Hessian matrix                  0.0010
  Calculation of matrix inversion                                 0.0017
  Global summation overhead                                       0.0006
--------------------------------------------------------------------------------
  Total CPU time                                                  4.3850
--------------------------------------------------------------------------------


  Job Finished at 11:23.55 29th May        2024                               

