********************************************************************************
*                       GENERAL UTILITY LATTICE PROGRAM                        *
*                                 Julian Gale                                  *
*                       Curtin Institute for Computation                       *
*                    School of Molecular and Life Sciences                     *
*                    Curtin University, Western Australia                      *
********************************************************************************
* Version = 6.0.0 * Last modified =  12th July 2021                            *
********************************************************************************
*  optimise     - perform optimisation run                                     *
*  conp         - constant pressure calculation                                *
*  conjugate    - use conjugate gradients minimiser                            *
********************************************************************************

  Job Started  at 11:24.24 29th May        2024                               

  Number of CPUs =     1


  Total number of configurations input =      1

********************************************************************************
*  Input for Configuration =   1                                               *
********************************************************************************

  Formula = Ti4O8                                                       

  Number of irreducible atoms/shells =      12


  Total number atoms/shells =      12

  Dimensionality = 3               :  Bulk   



  Cartesian lattice vectors (Angstroms) :

        4.484571    0.809243   -1.566259
       -0.280284    5.809364   -0.763018
        0.013364   -0.033845    5.100670

  Cell parameters (Angstroms/Degrees):

  a =       4.8187    alpha =  97.8609
  b =       5.8660    beta  = 108.8874
  c =       5.1008    gamma =  80.5533

  Initial cell volume =         134.024851 Angs**3

  Temperature of configuration =   0.00     K 

  Pressure of configuration =         0.000 GPa 

  Fractional coordinates of asymmetric unit :

--------------------------------------------------------------------------------
   No.  Atomic       x           y          z         Charge      Occupancy
        Label      (Frac)      (Frac)     (Frac)        (e)         (Frac)  
--------------------------------------------------------------------------------
      1 Ti    c    0.072476    0.282038    0.195163     2.19600    1.000000    
      2 Ti    c    0.322947 *  0.409785 *  0.961711 *   2.19600    1.000000    
      3 Ti    c    0.518557 *  0.562345 *  0.434291 *   2.19600    1.000000    
      4 Ti    c    0.686381 *  0.562345 *  0.913541 *   2.19600    1.000000    
      5 O     c    0.876849 *  0.388347 *  0.407797 *  -1.09800    1.000000    
      6 O     c    0.535594 *  0.303475 *  0.749071 *  -1.09800    1.000000    
      7 O     c    0.115356 *  0.010124 *  0.152311 *  -1.09800    1.000000    
      8 O     c    0.280063 *  0.175709 *  0.004582 *  -1.09800    1.000000    
      9 O     c    0.039306 *  0.730170 *  0.434291 *  -1.09800    1.000000    
     10 O     c    0.362844 *  0.885882 *  0.278578 *  -1.09800    1.000000    
     11 O     c    0.842093 *  0.885882 *  0.757827 *  -1.09800    1.000000    
     12 O     c    0.207131 *  0.730172 *  0.913541 *  -1.09800    1.000000    
--------------------------------------------------------------------------------



********************************************************************************
*  General input information                                                   *
********************************************************************************

  Species output for all configurations : 

--------------------------------------------------------------------------------
  Species    Type    Atomic    Atomic    Charge       Radii (Angs)     Library
                     Number     Mass       (e)     Cova   Ionic  VDW   Symbol
--------------------------------------------------------------------------------
    Ti       Core       22      47.88   2.196000   1.470  0.000  2.190          
    O        Core        8      16.00  -1.098000   0.730  0.000  1.360          
--------------------------------------------------------------------------------


  Lattice summation method               =    Ewald          (3-D)
                                         =    Parry          (2-D)
                                         =    Saunders et al (1-D)
  Accuracy factor for lattice sums       =   12.000


  Analytic derivatives to be used

  Time limit = Infinity

  Maximum range for interatomic potentials =    100000.000000 Angstroms

  General interatomic potentials :

--------------------------------------------------------------------------------
Atom  Types   Potential      Parameter       Value         Units   Cutoffs(Ang)
  1     2                                                            Min /  Max 
--------------------------------------------------------------------------------
Ti   c Ti   c Buckingham    Buckingham A     31120.100    eV        0.000 15.000
                            Buckingham rho  0.15400000    Ang       
                            Buckingham C     5.2500000    eV*Ang^6  
--------------------------------------------------------------------------------
O    c O    c Buckingham    Buckingham A     11782.700    eV        0.000 15.000
                            Buckingham rho  0.23400000    Ang       
                            Buckingham C     30.220000    eV*Ang^6  
--------------------------------------------------------------------------------
O    c Ti   c Buckingham    Buckingham A     16957.500    eV        0.000 15.000
                            Buckingham rho  0.19400000    Ang       
                            Buckingham C     12.590000    eV*Ang^6  
--------------------------------------------------------------------------------
Ti   c Ti   c Lennard       Lennard-Jones A  1.0000000    eV*Ang^m  0.000 15.000
                            Lennard-Jones B  0.0000000    eV*Ang^n  
                            Exponent m        12          None
                            Exponent n         6          None
--------------------------------------------------------------------------------
O    c O    c Lennard       Lennard-Jones A  1.0000000    eV*Ang^m  0.000 15.000
                            Lennard-Jones B  0.0000000    eV*Ang^n  
                            Exponent m        12          None
                            Exponent n         6          None
--------------------------------------------------------------------------------
O    c Ti   c Lennard       Lennard-Jones A  1.0000000    eV*Ang^m  0.000 15.000
                            Lennard-Jones B  0.0000000    eV*Ang^n  
                            Exponent m        12          None
                            Exponent n         6          None
--------------------------------------------------------------------------------

********************************************************************************
*  Output for configuration   1                                                *
********************************************************************************


  Components of energy : 

--------------------------------------------------------------------------------
  Interatomic potentials     =          78.07837298 eV    
  Monopole - monopole (real) =         -21.81735845 eV    
  Monopole - monopole (recip)=         -82.07366633 eV    
  Monopole - monopole (total)=        -103.89102478 eV    
--------------------------------------------------------------------------------
  Total lattice energy       =         -25.81265179 eV    
--------------------------------------------------------------------------------
  Total lattice energy       =           -2490.5263 kJ/(mole unit cells)
--------------------------------------------------------------------------------


  Number of variables =       39

  Maximum number of calculations  =          1000
  Maximum Hessian update interval =            10
  Maximum step size               =   1.000000000
  Maximum parameter tolerance     =   0.000010000
  Maximum function  tolerance     =   0.000010000
  Maximum gradient  tolerance     =   0.001000000
  Maximum gradient  component     =   0.010000000

  Symmetry not applied to optimisation

  Cell parameters to be optimised using strains

  Conjugate gradient optimiser to be used

  Lower half triangular hessian to be used

  Minimiser to switch to BFGS with exact hessian
  When gradient norm is less than     0.500000

  Start of bulk optimisation :

  Cycle:      0 Energy:       -25.812652  Gnorm:     30.190081  CPU:    0.029
  Cycle:      1 Energy:       -85.084914  Gnorm:     11.178148  CPU:    0.086
  Cycle:      2 Energy:      -101.389435  Gnorm:      5.571648  CPU:    0.120
  Cycle:      3 Energy:      -115.071917  Gnorm:      9.927344  CPU:    0.162
  Cycle:      4 Energy:      -122.427960  Gnorm:      9.569394  CPU:    0.199
  Cycle:      5 Energy:      -130.035060  Gnorm:      2.874743  CPU:    0.231
  Cycle:      6 Energy:      -138.414287  Gnorm:      3.485135  CPU:    0.272
  Cycle:      7 Energy:      -142.348324  Gnorm:      3.254115  CPU:    0.304
  Cycle:      8 Energy:      -144.615316  Gnorm:      1.427022  CPU:    0.340
  Cycle:      9 Energy:      -146.112767  Gnorm:      1.107746  CPU:    0.381
  Cycle:     10 Energy:      -146.731662  Gnorm:      0.965312  CPU:    0.414
  Cycle:     11 Energy:      -147.429482  Gnorm:      1.016880  CPU:    0.458
  Cycle:     12 Energy:      -148.372921  Gnorm:      0.702863  CPU:    0.499
  Cycle:     13 Energy:      -148.674821  Gnorm:      0.693306  CPU:    0.533
  Cycle:     14 Energy:      -149.131941  Gnorm:      0.764874  CPU:    0.577
  Cycle:     15 Energy:      -149.433070  Gnorm:      0.471307  CPU:    0.611
  ** Hessian calculated **
  Cycle:     16 Energy:      -149.760983  Gnorm:      0.510495  CPU:    0.681
  Cycle:     17 Energy:      -150.067126  Gnorm:      0.464311  CPU:    0.723
  Cycle:     18 Energy:      -150.546568  Gnorm:      0.678021  CPU:    0.770
  Cycle:     19 Energy:      -151.485751  Gnorm:      0.750132  CPU:    0.807
  Cycle:     20 Energy:      -151.847702  Gnorm:      0.663323  CPU:    0.836
  Cycle:     21 Energy:      -152.530474  Gnorm:      0.644050  CPU:    0.882
  Cycle:     22 Energy:      -153.004617  Gnorm:      0.534674  CPU:    0.920
  Cycle:     23 Energy:      -153.354331  Gnorm:      0.668906  CPU:    0.958
  Cycle:     24 Energy:      -153.913887  Gnorm:      0.584762  CPU:    1.010
  Cycle:     25 Energy:      -154.072720  Gnorm:      0.546627  CPU:    1.049
  ** Hessian calculated **
  Cycle:     26 Energy:      -154.375807  Gnorm:      0.315557  CPU:    1.131
  Cycle:     27 Energy:      -154.531511  Gnorm:      0.342412  CPU:    1.178
  Cycle:     28 Energy:      -154.663832  Gnorm:      0.339353  CPU:    1.226
  Cycle:     29 Energy:      -154.849878  Gnorm:      0.370706  CPU:    1.274
  Cycle:     30 Energy:      -155.073109  Gnorm:      0.377230  CPU:    1.325
  Cycle:     31 Energy:      -155.333773  Gnorm:      0.425426  CPU:    1.373
  Cycle:     32 Energy:      -155.525143  Gnorm:      0.523504  CPU:    1.412
  Cycle:     33 Energy:      -155.782258  Gnorm:      0.244572  CPU:    1.455
  Cycle:     34 Energy:      -155.855223  Gnorm:      0.166684  CPU:    1.494
  Cycle:     35 Energy:      -155.903436  Gnorm:      0.199563  CPU:    1.543
  ** Hessian calculated **
  Cycle:     36 Energy:      -155.993924  Gnorm:      0.153010  CPU:    1.654
  Cycle:     37 Energy:      -156.119942  Gnorm:      0.052662  CPU:    1.707
  ** Hessian calculated **
  Cycle:     38 Energy:      -156.131302  Gnorm:      0.015970  CPU:    1.787
  Cycle:     39 Energy:      -156.132003  Gnorm:      0.003104  CPU:    1.831
  Cycle:     40 Energy:      -156.132040  Gnorm:      0.000626  CPU:    1.879
  ** Hessian calculated **


  **** Optimisation achieved ****


  Final energy =    -156.13204062 eV      
  Final Gnorm  =       0.00033015

  Components of energy : 

--------------------------------------------------------------------------------
  Interatomic potentials     =          12.69888731 eV    
  Monopole - monopole (real) =         -69.19374157 eV    
  Monopole - monopole (recip)=         -99.63718637 eV    
  Monopole - monopole (total)=        -168.83092794 eV    
--------------------------------------------------------------------------------
  Total lattice energy       =        -156.13204062 eV    
--------------------------------------------------------------------------------
  Total lattice energy       =          -15064.3552 kJ/(mole unit cells)
--------------------------------------------------------------------------------

  Final fractional coordinates of atoms :

--------------------------------------------------------------------------------
   No.  Atomic        x           y          z          Radius
        Label       (Frac)      (Frac)     (Frac)       (Angs) 
--------------------------------------------------------------------------------
     1  Ti    c     0.072476    0.282038    0.195163    0.000000
     2  Ti    c     0.247534    0.387448    0.728540    0.000000
     3  Ti    c     0.600909    0.736830    0.568856    0.000000
     4  Ti    c     0.473038    0.896752    0.026006    0.000000
     5  O     c     0.808713    0.450250    0.450901    0.000000
     6  O     c     0.654805    0.519712    0.976010    0.000000
     7  O     c     0.869806    0.010190    0.178275    0.000000
     8  O     c     0.185251    0.264575    0.958098    0.000000
     9  O     c     0.321406    0.485450    0.492151    0.000000
    10  O     c     0.448824    0.960106    0.307953    0.000000
    11  O     c     0.424847    0.004110    0.720824    0.000000
    12  O     c     0.066130    0.754180    0.808625    0.000000
--------------------------------------------------------------------------------

  Final Cartesian lattice vectors (Angstroms) :

        4.307564    0.772639   -2.532640
        0.052524    4.967342   -0.887048
       -0.615106    0.129530    6.589554


  Final cell parameters and derivatives :

--------------------------------------------------------------------------------
       a            5.056318 Angstrom     dE/de1(xx)    -0.001380 eV/strain
       b            5.046196 Angstrom     dE/de2(yy)    -0.000643 eV/strain
       c            6.619468 Angstrom     dE/de3(zz)     0.000759 eV/strain
       alpha       99.015173 Degrees      dE/de4(yz)     0.001315 eV/strain
       beta       125.085346 Degrees      dE/de5(xz)    -0.000318 eV/strain
       gamma       75.680156 Degrees      dE/de6(xy)     0.000562 eV/strain
--------------------------------------------------------------------------------

  Primitive cell volume =           133.891166 Angs**3

  Density of cell =      3.962800 g/cm**3

  Non-primitive cell volume =           133.891166 Angs**3


  Final internal derivatives :

--------------------------------------------------------------------------------
   No.  Atomic          a             b             c           Radius
        Label          (eV)          (eV)          (eV)        (eV/Angs)
--------------------------------------------------------------------------------
      1 Ti    c       0.000000      0.000000      0.000000      0.000000
      2 Ti    c      -0.003290     -0.002819      0.001339      0.000000
      3 Ti    c      -0.000554     -0.000132      0.003204      0.000000
      4 Ti    c       0.003698     -0.000117      0.002552      0.000000
      5 O     c      -0.003539      0.000422     -0.000360      0.000000
      6 O     c      -0.000944      0.001977     -0.002284      0.000000
      7 O     c      -0.003347     -0.000720      0.001350      0.000000
      8 O     c       0.001361      0.000624     -0.004879      0.000000
      9 O     c      -0.000355      0.001848     -0.003229      0.000000
     10 O     c      -0.001563     -0.001599      0.004106      0.000000
     11 O     c      -0.001192      0.002499      0.000832      0.000000
     12 O     c      -0.000134     -0.001660      0.000004      0.000000
--------------------------------------------------------------------------------
  Maximum abs         0.003698      0.002819      0.004879      0.000000
--------------------------------------------------------------------------------


  Time to end of optimisation =       1.9648 seconds


  Peak dynamic memory used =       1.84 MB 


  Timing analysis for GULP :

--------------------------------------------------------------------------------
  Task / Subroutine                                          Time (Seconds)
--------------------------------------------------------------------------------
  Calculation of reciprocal space energy and derivatives          0.0591
  Calculation of real space energy and derivatives                1.8868
  Calculation and manipulation of Hessian matrix                  0.0005
  Calculation of matrix inversion                                 0.0010
  Global summation overhead                                       0.0003
--------------------------------------------------------------------------------
  Total CPU time                                                  1.9648
--------------------------------------------------------------------------------


  Job Finished at 11:24.26 29th May        2024                               

