********************************************************************************
*                       GENERAL UTILITY LATTICE PROGRAM                        *
*                                 Julian Gale                                  *
*                       Curtin Institute for Computation                       *
*                    School of Molecular and Life Sciences                     *
*                    Curtin University, Western Australia                      *
********************************************************************************
* Version = 6.0.0 * Last modified =  12th July 2021                            *
********************************************************************************
*  optimise     - perform optimisation run                                     *
*  conp         - constant pressure calculation                                *
*  conjugate    - use conjugate gradients minimiser                            *
********************************************************************************

  Job Started  at 11:24.21 29th May        2024                               

  Number of CPUs =     1


  Total number of configurations input =      1

********************************************************************************
*  Input for Configuration =   1                                               *
********************************************************************************

  Formula = Ti4O8                                                       

  Number of irreducible atoms/shells =      12


  Total number atoms/shells =      12

  Dimensionality = 3               :  Bulk   



  Cartesian lattice vectors (Angstroms) :

        6.272158    0.045542    1.480883
       -0.173807    6.514189    0.264219
        0.573764   -0.126433    3.408972

  Cell parameters (Angstroms/Degrees):

  a =       6.4448    alpha =  90.0574
  b =       6.5219    beta  =  67.1944
  c =       3.4592    gamma =  90.5483

  Initial cell volume =         134.024851 Angs**3

  Temperature of configuration =   0.00     K 

  Pressure of configuration =         0.000 GPa 

  Fractional coordinates of asymmetric unit :

--------------------------------------------------------------------------------
   No.  Atomic       x           y          z         Charge      Occupancy
        Label      (Frac)      (Frac)     (Frac)        (e)         (Frac)  
--------------------------------------------------------------------------------
      1 Ti    c    0.638118    0.494017    0.991282     2.19600    1.000000    
      2 Ti    c    0.124435 *  0.494019 *  0.991282 *   2.19600    1.000000    
      3 Ti    c    0.025862 *  0.849224 *  0.745072 *   2.19600    1.000000    
      4 Ti    c    0.952325 *  0.795986 *  0.252288 *   2.19600    1.000000    
      5 O     c    0.326533 *  0.494018 *  0.241255 *  -1.09800    1.000000    
      6 O     c    0.124433 *  0.182433 *  0.991285 *  -1.09800    1.000000    
      7 O     c    0.638118 *  0.291919 *  0.443352 *  -1.09800    1.000000    
      8 O     c    0.983950 *  0.494018 *  0.645450 *  -1.09800    1.000000    
      9 O     c    0.366851 *  0.970568 *  0.609240 *  -1.09800    1.000000    
     10 O     c    0.744254 *  0.056148 *  0.296131 *  -1.09800    1.000000    
     11 O     c    0.293317 *  0.917329 *  0.100892 *  -1.09800    1.000000    
     12 O     c    0.574924 *  0.710406 *  0.565397 *  -1.09800    1.000000    
--------------------------------------------------------------------------------



********************************************************************************
*  General input information                                                   *
********************************************************************************

  Species output for all configurations : 

--------------------------------------------------------------------------------
  Species    Type    Atomic    Atomic    Charge       Radii (Angs)     Library
                     Number     Mass       (e)     Cova   Ionic  VDW   Symbol
--------------------------------------------------------------------------------
    Ti       Core       22      47.88   2.196000   1.470  0.000  2.190          
    O        Core        8      16.00  -1.098000   0.730  0.000  1.360          
--------------------------------------------------------------------------------


  Lattice summation method               =    Ewald          (3-D)
                                         =    Parry          (2-D)
                                         =    Saunders et al (1-D)
  Accuracy factor for lattice sums       =   12.000


  Analytic derivatives to be used

  Time limit = Infinity

  Maximum range for interatomic potentials =    100000.000000 Angstroms

  General interatomic potentials :

--------------------------------------------------------------------------------
Atom  Types   Potential      Parameter       Value         Units   Cutoffs(Ang)
  1     2                                                            Min /  Max 
--------------------------------------------------------------------------------
Ti   c Ti   c Buckingham    Buckingham A     31120.100    eV        0.000 15.000
                            Buckingham rho  0.15400000    Ang       
                            Buckingham C     5.2500000    eV*Ang^6  
--------------------------------------------------------------------------------
O    c O    c Buckingham    Buckingham A     11782.700    eV        0.000 15.000
                            Buckingham rho  0.23400000    Ang       
                            Buckingham C     30.220000    eV*Ang^6  
--------------------------------------------------------------------------------
O    c Ti   c Buckingham    Buckingham A     16957.500    eV        0.000 15.000
                            Buckingham rho  0.19400000    Ang       
                            Buckingham C     12.590000    eV*Ang^6  
--------------------------------------------------------------------------------
Ti   c Ti   c Lennard       Lennard-Jones A  1.0000000    eV*Ang^m  0.000 15.000
                            Lennard-Jones B  0.0000000    eV*Ang^n  
                            Exponent m        12          None
                            Exponent n         6          None
--------------------------------------------------------------------------------
O    c O    c Lennard       Lennard-Jones A  1.0000000    eV*Ang^m  0.000 15.000
                            Lennard-Jones B  0.0000000    eV*Ang^n  
                            Exponent m        12          None
                            Exponent n         6          None
--------------------------------------------------------------------------------
O    c Ti   c Lennard       Lennard-Jones A  1.0000000    eV*Ang^m  0.000 15.000
                            Lennard-Jones B  0.0000000    eV*Ang^n  
                            Exponent m        12          None
                            Exponent n         6          None
--------------------------------------------------------------------------------

********************************************************************************
*  Output for configuration   1                                                *
********************************************************************************


  Components of energy : 

--------------------------------------------------------------------------------
  Interatomic potentials     =          28.32240031 eV    
  Monopole - monopole (real) =          -8.15437123 eV    
  Monopole - monopole (recip)=         -75.79667142 eV    
  Monopole - monopole (total)=         -83.95104265 eV    
--------------------------------------------------------------------------------
  Total lattice energy       =         -55.62864234 eV    
--------------------------------------------------------------------------------
  Total lattice energy       =           -5367.3136 kJ/(mole unit cells)
--------------------------------------------------------------------------------


  Number of variables =       39

  Maximum number of calculations  =          1000
  Maximum Hessian update interval =            10
  Maximum step size               =   1.000000000
  Maximum parameter tolerance     =   0.000010000
  Maximum function  tolerance     =   0.000010000
  Maximum gradient  tolerance     =   0.001000000
  Maximum gradient  component     =   0.010000000

  Symmetry not applied to optimisation

  Cell parameters to be optimised using strains

  Conjugate gradient optimiser to be used

  Lower half triangular hessian to be used

  Minimiser to switch to BFGS with exact hessian
  When gradient norm is less than     0.500000

  Start of bulk optimisation :

  Cycle:      0 Energy:       -55.628642  Gnorm:     15.676678  CPU:    0.022
  Cycle:      1 Energy:      -105.689171  Gnorm:      8.764459  CPU:    0.051
  Cycle:      2 Energy:      -119.819140  Gnorm:      4.318150  CPU:    0.074
  Cycle:      3 Energy:      -129.713621  Gnorm:      3.422005  CPU:    0.109
  Cycle:      4 Energy:      -133.326167  Gnorm:      3.588096  CPU:    0.130
  Cycle:      5 Energy:      -136.359706  Gnorm:      3.446449  CPU:    0.150
  Cycle:      6 Energy:      -139.131175  Gnorm:      2.190383  CPU:    0.175
  Cycle:      7 Energy:      -140.762334  Gnorm:      1.608145  CPU:    0.199
  Cycle:      8 Energy:      -142.145940  Gnorm:      2.036363  CPU:    0.227
  Cycle:      9 Energy:      -144.855032  Gnorm:      1.752982  CPU:    0.250
  Cycle:     10 Energy:      -145.983779  Gnorm:      0.950099  CPU:    0.270
  Cycle:     11 Energy:      -146.679407  Gnorm:      1.008984  CPU:    0.295
  Cycle:     12 Energy:      -147.444513  Gnorm:      1.005276  CPU:    0.324
  Cycle:     13 Energy:      -147.934834  Gnorm:      0.761409  CPU:    0.347
  Cycle:     14 Energy:      -148.141039  Gnorm:      0.589494  CPU:    0.367
  Cycle:     15 Energy:      -148.407256  Gnorm:      0.638677  CPU:    0.391
  Cycle:     16 Energy:      -148.630636  Gnorm:      0.522349  CPU:    0.412
  Cycle:     17 Energy:      -148.814151  Gnorm:      0.516811  CPU:    0.436
  Cycle:     18 Energy:      -148.956196  Gnorm:      0.475916  CPU:    0.459
  ** Hessian calculated **
  Cycle:     19 Energy:      -149.335123  Gnorm:      0.584582  CPU:    0.521
  ** Hessian calculated **
  Cycle:     20 Energy:      -149.600278  Gnorm:      0.514160  CPU:    0.583
  Cycle:     21 Energy:      -149.787446  Gnorm:      0.410092  CPU:    0.614
  Cycle:     22 Energy:      -149.897242  Gnorm:      0.338679  CPU:    0.640
  Cycle:     23 Energy:      -149.959417  Gnorm:      0.325847  CPU:    0.666
  Cycle:     24 Energy:      -150.050205  Gnorm:      0.310723  CPU:    0.702
  Cycle:     25 Energy:      -150.139434  Gnorm:      0.325214  CPU:    0.728
  Cycle:     26 Energy:      -150.407496  Gnorm:      0.500488  CPU:    0.753
  Cycle:     27 Energy:      -150.583898  Gnorm:      0.465563  CPU:    0.773
  Cycle:     28 Energy:      -150.752520  Gnorm:      0.333589  CPU:    0.806
  Cycle:     29 Energy:      -150.870452  Gnorm:      0.348635  CPU:    0.832
  ** Hessian calculated **
  Cycle:     30 Energy:      -151.021661  Gnorm:      0.359392  CPU:    0.895
  Cycle:     31 Energy:      -151.105753  Gnorm:      0.559930  CPU:    0.924
  Cycle:     32 Energy:      -151.599056  Gnorm:      0.810200  CPU:    0.964
  Cycle:     33 Energy:      -151.913320  Gnorm:      1.252727  CPU:    0.998
  Cycle:     34 Energy:      -152.586009  Gnorm:      1.022002  CPU:    1.033
  Cycle:     35 Energy:      -153.026089  Gnorm:      0.613014  CPU:    1.071
  Cycle:     36 Energy:      -153.305441  Gnorm:      0.551306  CPU:    1.115
  Cycle:     37 Energy:      -153.471038  Gnorm:      0.533050  CPU:    1.153
  Cycle:     38 Energy:      -153.648051  Gnorm:      0.479210  CPU:    1.200
  Cycle:     39 Energy:      -153.809716  Gnorm:      0.347035  CPU:    1.247
  ** Hessian calculated **
  Cycle:     40 Energy:      -154.068073  Gnorm:      0.330356  CPU:    1.338
  Cycle:     41 Energy:      -154.216420  Gnorm:      0.191550  CPU:    1.377
  Cycle:     42 Energy:      -154.260939  Gnorm:      0.165708  CPU:    1.420
  Cycle:     43 Energy:      -154.349195  Gnorm:      0.233094  CPU:    1.470
  Cycle:     44 Energy:      -154.430183  Gnorm:      0.324122  CPU:    1.514
  Cycle:     45 Energy:      -154.481313  Gnorm:      0.352205  CPU:    1.547
  ** Hessian calculated **
  Cycle:     46 Energy:      -154.596458  Gnorm:      0.192275  CPU:    1.623
  Cycle:     47 Energy:      -154.598044  Gnorm:      0.165076  CPU:    1.673
  ** Hessian calculated **
  Cycle:     48 Energy:      -154.623739  Gnorm:      0.099857  CPU:    1.752
  Cycle:     49 Energy:      -154.652625  Gnorm:      0.175218  CPU:    1.804
  Cycle:     50 Energy:      -154.711157  Gnorm:      0.191805  CPU:    1.848
  Cycle:     51 Energy:      -154.757410  Gnorm:      0.109594  CPU:    1.878
  Cycle:     52 Energy:      -154.780936  Gnorm:      0.123272  CPU:    1.918
  Cycle:     53 Energy:      -154.805317  Gnorm:      0.122807  CPU:    1.955
  Cycle:     54 Energy:      -154.841478  Gnorm:      0.198364  CPU:    1.992
  Cycle:     55 Energy:      -154.887509  Gnorm:      0.227918  CPU:    2.023
  Cycle:     56 Energy:      -154.940165  Gnorm:      0.153963  CPU:    2.057
  Cycle:     57 Energy:      -154.976829  Gnorm:      0.101899  CPU:    2.094
  ** Hessian calculated **
  Cycle:     58 Energy:      -154.989958  Gnorm:      0.087801  CPU:    2.176
  Cycle:     59 Energy:      -155.005791  Gnorm:      0.106771  CPU:    2.213
  Cycle:     60 Energy:      -155.035026  Gnorm:      0.137253  CPU:    2.250
  Cycle:     61 Energy:      -155.075073  Gnorm:      0.140635  CPU:    2.288
  Cycle:     62 Energy:      -155.120193  Gnorm:      0.172958  CPU:    2.318
  Cycle:     63 Energy:      -155.158599  Gnorm:      0.104710  CPU:    2.353
  Cycle:     64 Energy:      -155.185049  Gnorm:      0.102244  CPU:    2.391
  Cycle:     65 Energy:      -155.211846  Gnorm:      0.114118  CPU:    2.422
  Cycle:     66 Energy:      -155.228120  Gnorm:      0.098416  CPU:    2.464
  Cycle:     67 Energy:      -155.250679  Gnorm:      0.108717  CPU:    2.502
  ** Hessian calculated **
  Cycle:     68 Energy:      -155.281622  Gnorm:      0.111727  CPU:    2.585
  Cycle:     69 Energy:      -155.315555  Gnorm:      0.023878  CPU:    2.616
  Cycle:     70 Energy:      -155.319746  Gnorm:      0.019431  CPU:    2.647
  Cycle:     71 Energy:      -155.320587  Gnorm:      0.009289  CPU:    2.688
  Cycle:     72 Energy:      -155.320744  Gnorm:      0.001820  CPU:    2.719
  Cycle:     73 Energy:      -155.320755  Gnorm:      0.000483  CPU:    2.757


  **** Optimisation achieved ****


  Final energy =    -155.32075611 eV      
  Final Gnorm  =       0.00016808

  Components of energy : 

--------------------------------------------------------------------------------
  Interatomic potentials     =          11.78255153 eV    
  Monopole - monopole (real) =         -63.23123976 eV    
  Monopole - monopole (recip)=        -103.87206788 eV    
  Monopole - monopole (total)=        -167.10330764 eV    
--------------------------------------------------------------------------------
  Total lattice energy       =        -155.32075611 eV    
--------------------------------------------------------------------------------
  Total lattice energy       =          -14986.0787 kJ/(mole unit cells)
--------------------------------------------------------------------------------

  Final fractional coordinates of atoms :

--------------------------------------------------------------------------------
   No.  Atomic        x           y          z          Radius
        Label       (Frac)      (Frac)     (Frac)       (Angs) 
--------------------------------------------------------------------------------
     1  Ti    c     0.638118    0.494017    0.991282    0.000000
     2  Ti    c     0.164833    0.633125    0.727906    0.000000
     3  Ti    c     0.163588    0.189471    0.228545    0.000000
     4  Ti    c     0.739567    0.996653    0.440533    0.000000
     5  O     c     0.313418    0.434657    0.153634    0.000000
     6  O     c     0.974542    0.448134    0.823068    0.000000
     7  O     c     0.711661    0.296936    0.454516    0.000000
     8  O     c     0.707984    0.845576    0.956323    0.000000
     9  O     c     0.386700    0.109999    0.616971    0.000000
    10  O     c     0.989892    0.080032    0.815403    0.000000
    11  O     c     0.056381    0.784372    0.282133    0.000000
    12  O     c     0.481863    0.647867    0.569406    0.000000
--------------------------------------------------------------------------------

  Final Cartesian lattice vectors (Angstroms) :

        5.942495    0.910021    0.916591
        0.743962    6.681397    0.166269
        0.354789   -0.116293    3.085792


  Final cell parameters and derivatives :

--------------------------------------------------------------------------------
       a            6.081244 Angstrom     dE/de1(xx)    -0.000592 eV/strain
       b            6.724745 Angstrom     dE/de2(yy)     0.000800 eV/strain
       c            3.108297 Angstrom     dE/de3(zz)     0.000148 eV/strain
       alpha       89.999944 Degrees      dE/de4(yz)     0.000063 eV/strain
       beta        75.192497 Degrees      dE/de5(xz)     0.000410 eV/strain
       gamma       74.899533 Degrees      dE/de6(xy)     0.000641 eV/strain
--------------------------------------------------------------------------------

  Primitive cell volume =           118.346194 Angs**3

  Density of cell =      4.483320 g/cm**3

  Non-primitive cell volume =           118.346194 Angs**3


  Final internal derivatives :

--------------------------------------------------------------------------------
   No.  Atomic          a             b             c           Radius
        Label          (eV)          (eV)          (eV)        (eV/Angs)
--------------------------------------------------------------------------------
      1 Ti    c       0.000000      0.000000      0.000000      0.000000
      2 Ti    c       0.001299      0.002200     -0.000690      0.000000
      3 Ti    c       0.000939     -0.000656      0.000619      0.000000
      4 Ti    c      -0.000678      0.001136      0.000394      0.000000
      5 O     c       0.000465      0.000089      0.001033      0.000000
      6 O     c      -0.000316      0.000038     -0.000250      0.000000
      7 O     c       0.001025      0.000596      0.000107      0.000000
      8 O     c      -0.001024     -0.000399     -0.001058      0.000000
      9 O     c      -0.001835     -0.001190     -0.000717      0.000000
     10 O     c       0.001921      0.001769      0.000616      0.000000
     11 O     c      -0.000933     -0.003337     -0.000708      0.000000
     12 O     c      -0.000084     -0.000748     -0.000005      0.000000
--------------------------------------------------------------------------------
  Maximum abs         0.001921      0.003337      0.001058      0.000000
--------------------------------------------------------------------------------


  Time to end of optimisation =       2.7918 seconds


  Peak dynamic memory used =       1.84 MB 


  Timing analysis for GULP :

--------------------------------------------------------------------------------
  Task / Subroutine                                          Time (Seconds)
--------------------------------------------------------------------------------
  Calculation of reciprocal space energy and derivatives          0.1021
  Calculation of real space energy and derivatives                2.6634
  Calculation and manipulation of Hessian matrix                  0.0010
  Calculation of matrix inversion                                 0.0017
  Global summation overhead                                       0.0005
--------------------------------------------------------------------------------
  Total CPU time                                                  2.7918
--------------------------------------------------------------------------------


  Job Finished at 11:24.24 29th May        2024                               

