********************************************************************************
*                       GENERAL UTILITY LATTICE PROGRAM                        *
*                                 Julian Gale                                  *
*                       Curtin Institute for Computation                       *
*                    School of Molecular and Life Sciences                     *
*                    Curtin University, Western Australia                      *
********************************************************************************
* Version = 6.0.0 * Last modified =  12th July 2021                            *
********************************************************************************
*  optimise     - perform optimisation run                                     *
*  conp         - constant pressure calculation                                *
*  conjugate    - use conjugate gradients minimiser                            *
********************************************************************************

  Job Started  at 11:26.47 29th May        2024                               

  Number of CPUs =     1


  Total number of configurations input =      1

********************************************************************************
*  Input for Configuration =   1                                               *
********************************************************************************

  Formula = Ti4O8                                                       

  Number of irreducible atoms/shells =      12


  Total number atoms/shells =      12

  Dimensionality = 3               :  Bulk   



  Cartesian lattice vectors (Angstroms) :

        3.714522    0.997757   -3.860882
        0.488759    7.379711   -1.269123
       -0.273432   -0.968555    5.356009

  Cell parameters (Angstroms/Degrees):

  a =       5.4497    alpha = 110.1371
  b =       7.5040    beta  = 139.7298
  c =       5.4497    gamma =  69.8631

  Initial cell volume =         134.024851 Angs**3

  Temperature of configuration =   0.00     K 

  Pressure of configuration =         0.000 GPa 

  Fractional coordinates of asymmetric unit :

--------------------------------------------------------------------------------
   No.  Atomic       x           y          z         Charge      Occupancy
        Label      (Frac)      (Frac)     (Frac)        (e)         (Frac)  
--------------------------------------------------------------------------------
      1 Ti    c    0.965976    0.360036    0.002299     2.19600    1.000000    
      2 Ti    c    0.923822 *  0.129877 *  0.044455 *   2.19600    1.000000    
      3 Ti    c    0.714730 *  0.234405 *  0.253530 *   2.19600    1.000000    
      4 Ti    c    0.170100 *  0.255484 *  0.798171 *   2.19600    1.000000    
      5 O     c    0.923820 *  0.632353 *  0.044459 *  -1.09800    1.000000    
      6 O     c    0.379188 *  0.653430 *  0.589100 *  -1.09800    1.000000    
      7 O     c    0.379187 *  0.150955 *  0.589091 *  -1.09800    1.000000    
      8 O     c    0.714742 *  0.736887 *  0.253553 *  -1.09800    1.000000    
      9 O     c    0.965985 *  0.862515 *  0.002321 *  -1.09800    1.000000    
     10 O     c    0.127935 *  0.527805 *  0.840324 *  -1.09800    1.000000    
     11 O     c    0.127934 *  0.025327 *  0.840324 *  -1.09800    1.000000    
     12 O     c    0.170103 *  0.757965 *  0.798176 *  -1.09800    1.000000    
--------------------------------------------------------------------------------



********************************************************************************
*  General input information                                                   *
********************************************************************************

  Species output for all configurations : 

--------------------------------------------------------------------------------
  Species    Type    Atomic    Atomic    Charge       Radii (Angs)     Library
                     Number     Mass       (e)     Cova   Ionic  VDW   Symbol
--------------------------------------------------------------------------------
    Ti       Core       22      47.88   2.196000   1.470  0.000  2.190          
    O        Core        8      16.00  -1.098000   0.730  0.000  1.360          
--------------------------------------------------------------------------------


  Lattice summation method               =    Ewald          (3-D)
                                         =    Parry          (2-D)
                                         =    Saunders et al (1-D)
  Accuracy factor for lattice sums       =   12.000


  Analytic derivatives to be used

  Time limit = Infinity

  Maximum range for interatomic potentials =    100000.000000 Angstroms

  General interatomic potentials :

--------------------------------------------------------------------------------
Atom  Types   Potential      Parameter       Value         Units   Cutoffs(Ang)
  1     2                                                            Min /  Max 
--------------------------------------------------------------------------------
Ti   c Ti   c Buckingham    Buckingham A     31120.100    eV        0.000 15.000
                            Buckingham rho  0.15400000    Ang       
                            Buckingham C     5.2500000    eV*Ang^6  
--------------------------------------------------------------------------------
O    c O    c Buckingham    Buckingham A     11782.700    eV        0.000 15.000
                            Buckingham rho  0.23400000    Ang       
                            Buckingham C     30.220000    eV*Ang^6  
--------------------------------------------------------------------------------
O    c Ti   c Buckingham    Buckingham A     16957.500    eV        0.000 15.000
                            Buckingham rho  0.19400000    Ang       
                            Buckingham C     12.590000    eV*Ang^6  
--------------------------------------------------------------------------------
Ti   c Ti   c Lennard       Lennard-Jones A  1.0000000    eV*Ang^m  0.000 15.000
                            Lennard-Jones B  0.0000000    eV*Ang^n  
                            Exponent m        12          None
                            Exponent n         6          None
--------------------------------------------------------------------------------
O    c O    c Lennard       Lennard-Jones A  1.0000000    eV*Ang^m  0.000 15.000
                            Lennard-Jones B  0.0000000    eV*Ang^n  
                            Exponent m        12          None
                            Exponent n         6          None
--------------------------------------------------------------------------------
O    c Ti   c Lennard       Lennard-Jones A  1.0000000    eV*Ang^m  0.000 15.000
                            Lennard-Jones B  0.0000000    eV*Ang^n  
                            Exponent m        12          None
                            Exponent n         6          None
--------------------------------------------------------------------------------

********************************************************************************
*  Output for configuration   1                                                *
********************************************************************************


  Components of energy : 

--------------------------------------------------------------------------------
  Interatomic potentials     =          30.95131766 eV    
  Monopole - monopole (real) =          33.80719416 eV    
  Monopole - monopole (recip)=         -26.19225727 eV    
  Monopole - monopole (total)=           7.61493689 eV    
--------------------------------------------------------------------------------
  Total lattice energy       =          38.56625456 eV    
--------------------------------------------------------------------------------
  Total lattice energy       =            3721.0540 kJ/(mole unit cells)
--------------------------------------------------------------------------------


  Number of variables =       39

  Maximum number of calculations  =          1000
  Maximum Hessian update interval =            10
  Maximum step size               =   1.000000000
  Maximum parameter tolerance     =   0.000010000
  Maximum function  tolerance     =   0.000010000
  Maximum gradient  tolerance     =   0.001000000
  Maximum gradient  component     =   0.010000000

  Symmetry not applied to optimisation

  Cell parameters to be optimised using strains

  Conjugate gradient optimiser to be used

  Lower half triangular hessian to be used

  Minimiser to switch to BFGS with exact hessian
  When gradient norm is less than     0.500000

  Start of bulk optimisation :

  Cycle:      0 Energy:        38.566255  Gnorm:     18.511163  CPU:    0.033
  Cycle:      1 Energy:       -12.029552  Gnorm:     13.461170  CPU:    0.088
  Cycle:      2 Energy:       -26.027531  Gnorm:     10.457402  CPU:    0.132
  Cycle:      3 Energy:       -54.274775  Gnorm:     15.175734  CPU:    0.184
  Cycle:      4 Energy:       -84.592979  Gnorm:     10.950555  CPU:    0.242
  Cycle:      5 Energy:      -104.186057  Gnorm:      7.989146  CPU:    0.299
  Cycle:      6 Energy:      -114.278538  Gnorm:      3.862553  CPU:    0.346
  Cycle:      7 Energy:      -118.732147  Gnorm:      3.153626  CPU:    0.392
  Cycle:      8 Energy:      -125.197214  Gnorm:      3.476353  CPU:    0.439
  Cycle:      9 Energy:      -130.277179  Gnorm:      3.187364  CPU:    0.477
  Cycle:     10 Energy:      -133.579068  Gnorm:      2.514464  CPU:    0.525
  Cycle:     11 Energy:      -138.111200  Gnorm:      1.593752  CPU:    0.584
  Cycle:     12 Energy:      -139.874490  Gnorm:      1.214372  CPU:    0.644
  Cycle:     13 Energy:      -140.372691  Gnorm:      1.333897  CPU:    0.685
  Cycle:     14 Energy:      -141.011464  Gnorm:      1.710213  CPU:    0.735
  Cycle:     15 Energy:      -141.622099  Gnorm:      1.195906  CPU:    0.776
  Cycle:     16 Energy:      -142.299029  Gnorm:      0.868163  CPU:    0.826
  Cycle:     17 Energy:      -142.582563  Gnorm:      1.054960  CPU:    0.866
  Cycle:     18 Energy:      -142.884456  Gnorm:      0.990475  CPU:    0.907
  Cycle:     19 Energy:      -143.287918  Gnorm:      0.929633  CPU:    0.957
  Cycle:     20 Energy:      -143.517545  Gnorm:      0.941834  CPU:    0.997
  Cycle:     21 Energy:      -143.688364  Gnorm:      0.759466  CPU:    1.038
  Cycle:     22 Energy:      -143.902215  Gnorm:      0.798618  CPU:    1.088
  Cycle:     23 Energy:      -144.149252  Gnorm:      0.782605  CPU:    1.138
  Cycle:     24 Energy:      -144.397840  Gnorm:      0.994581  CPU:    1.189
  Cycle:     25 Energy:      -144.878893  Gnorm:      1.454034  CPU:    1.240
  Cycle:     26 Energy:      -145.794661  Gnorm:      1.127314  CPU:    1.293
  Cycle:     27 Energy:      -146.484420  Gnorm:      1.412447  CPU:    1.346
  Cycle:     28 Energy:      -146.892254  Gnorm:      1.336748  CPU:    1.389
  Cycle:     29 Energy:      -147.634894  Gnorm:      1.332781  CPU:    1.444
  Cycle:     30 Energy:      -147.979190  Gnorm:      1.240363  CPU:    1.489
  Cycle:     31 Energy:      -148.333517  Gnorm:      1.005364  CPU:    1.543
  Cycle:     32 Energy:      -148.648752  Gnorm:      0.891170  CPU:    1.598
  Cycle:     33 Energy:      -148.976961  Gnorm:      1.165283  CPU:    1.652
  Cycle:     34 Energy:      -149.184430  Gnorm:      0.475134  CPU:    1.696
  ** Hessian calculated **
  Cycle:     35 Energy:      -149.301598  Gnorm:      0.413067  CPU:    1.774
  Cycle:     36 Energy:      -149.385299  Gnorm:      0.321940  CPU:    1.829
  Cycle:     37 Energy:      -149.485240  Gnorm:      0.424237  CPU:    1.884
  Cycle:     38 Energy:      -149.628452  Gnorm:      0.377288  CPU:    1.939
  Cycle:     39 Energy:      -149.676359  Gnorm:      0.228946  CPU:    1.983
  Cycle:     40 Energy:      -149.711011  Gnorm:      0.278839  CPU:    2.027
  Cycle:     41 Energy:      -149.727996  Gnorm:      0.129793  CPU:    2.072
  Cycle:     42 Energy:      -149.737704  Gnorm:      0.147570  CPU:    2.116
  Cycle:     43 Energy:      -149.747832  Gnorm:      0.119169  CPU:    2.171
  Cycle:     44 Energy:      -149.764955  Gnorm:      0.191297  CPU:    2.230
  ** Hessian calculated **
  Cycle:     45 Energy:      -149.776484  Gnorm:      0.103076  CPU:    2.309
  Cycle:     46 Energy:      -149.784062  Gnorm:      0.110610  CPU:    2.368
  Cycle:     47 Energy:      -149.797283  Gnorm:      0.182452  CPU:    2.423
  Cycle:     48 Energy:      -149.814943  Gnorm:      0.246808  CPU:    2.478
  Cycle:     49 Energy:      -149.886724  Gnorm:      0.284606  CPU:    2.545
  Cycle:     50 Energy:      -149.952157  Gnorm:      0.347466  CPU:    2.602
  Cycle:     51 Energy:      -150.077237  Gnorm:      0.494329  CPU:    2.648
  Cycle:     52 Energy:      -150.174569  Gnorm:      0.361094  CPU:    2.695
  Cycle:     53 Energy:      -150.267223  Gnorm:      0.445187  CPU:    2.754
  Cycle:     54 Energy:      -150.363248  Gnorm:      0.341816  CPU:    2.801
  ** Hessian calculated **
  Cycle:     55 Energy:      -150.405891  Gnorm:      0.263154  CPU:    2.883
  Cycle:     56 Energy:      -150.440816  Gnorm:      0.322293  CPU:    2.941
  Cycle:     57 Energy:      -150.472489  Gnorm:      0.294148  CPU:    2.999
  Cycle:     58 Energy:      -150.516660  Gnorm:      0.253596  CPU:    3.057
  Cycle:     59 Energy:      -150.581454  Gnorm:      0.274487  CPU:    3.115
  Cycle:     60 Energy:      -150.627662  Gnorm:      0.337785  CPU:    3.162
  Cycle:     61 Energy:      -150.701651  Gnorm:      0.418049  CPU:    3.219
  Cycle:     62 Energy:      -150.790811  Gnorm:      0.359320  CPU:    3.277
  Cycle:     63 Energy:      -150.852318  Gnorm:      0.347399  CPU:    3.324
  Cycle:     64 Energy:      -150.952283  Gnorm:      0.339293  CPU:    3.383
  ** Hessian calculated **
  Cycle:     65 Energy:      -151.010366  Gnorm:      0.270750  CPU:    3.465
  Cycle:     66 Energy:      -151.048469  Gnorm:      0.344935  CPU:    3.523
  Cycle:     67 Energy:      -151.089203  Gnorm:      0.331096  CPU:    3.582
  Cycle:     68 Energy:      -151.199164  Gnorm:      0.347476  CPU:    3.641
  Cycle:     69 Energy:      -151.281827  Gnorm:      0.364975  CPU:    3.690
  Cycle:     70 Energy:      -151.375988  Gnorm:      0.353770  CPU:    3.750
  Cycle:     71 Energy:      -151.486335  Gnorm:      0.455492  CPU:    3.810
  Cycle:     72 Energy:      -151.562146  Gnorm:      0.409431  CPU:    3.859
  Cycle:     73 Energy:      -151.675380  Gnorm:      0.457015  CPU:    3.919
  Cycle:     74 Energy:      -151.842049  Gnorm:      0.515617  CPU:    3.980
  ** Hessian calculated **
  Cycle:     75 Energy:      -151.978526  Gnorm:      0.429961  CPU:    4.067
  Cycle:     76 Energy:      -152.150106  Gnorm:      0.480131  CPU:    4.128
  Cycle:     77 Energy:      -152.263227  Gnorm:      0.414168  CPU:    4.177
  Cycle:     78 Energy:      -152.401104  Gnorm:      0.461186  CPU:    4.238
  Cycle:     79 Energy:      -152.505550  Gnorm:      0.505658  CPU:    4.286
  Cycle:     80 Energy:      -152.648225  Gnorm:      0.428775  CPU:    4.347
  Cycle:     81 Energy:      -152.757394  Gnorm:      0.450456  CPU:    4.397
  Cycle:     82 Energy:      -152.842867  Gnorm:      0.346234  CPU:    4.446
  Cycle:     83 Energy:      -152.937232  Gnorm:      0.407639  CPU:    4.507
  Cycle:     84 Energy:      -153.049258  Gnorm:      0.377289  CPU:    4.568
  ** Hessian calculated **
  Cycle:     85 Energy:      -153.181235  Gnorm:      0.277883  CPU:    4.677
  Cycle:     86 Energy:      -153.376005  Gnorm:      0.193689  CPU:    4.736
  ** Hessian calculated **
  Cycle:     87 Energy:      -153.484756  Gnorm:      0.149389  CPU:    4.833
  Cycle:     88 Energy:      -153.491098  Gnorm:      0.041393  CPU:    4.880
  Cycle:     89 Energy:      -153.492457  Gnorm:      0.026988  CPU:    4.938
  Cycle:     90 Energy:      -153.492893  Gnorm:      0.012053  CPU:    4.996
  ** Hessian calculated **
  Cycle:     91 Energy:      -153.492934  Gnorm:      0.005538  CPU:    5.079
  Cycle:     92 Energy:      -153.492946  Gnorm:      0.003418  CPU:    5.126
  Cycle:     93 Energy:      -153.492955  Gnorm:      0.003731  CPU:    5.172
  Cycle:     94 Energy:      -153.492964  Gnorm:      0.003922  CPU:    5.219
  Cycle:     95 Energy:      -153.492976  Gnorm:      0.005281  CPU:    5.266
  Cycle:     96 Energy:      -153.492990  Gnorm:      0.006289  CPU:    5.313
  Cycle:     97 Energy:      -153.493013  Gnorm:      0.004633  CPU:    5.371
  Cycle:     98 Energy:      -153.493059  Gnorm:      0.006239  CPU:    5.441
  Cycle:     99 Energy:      -153.493148  Gnorm:      0.015567  CPU:    5.510
  Cycle:    100 Energy:      -153.493404  Gnorm:      0.018178  CPU:    5.568
  ** Hessian calculated **
  Cycle:    101 Energy:      -153.493552  Gnorm:      0.015504  CPU:    5.651
  Cycle:    102 Energy:      -153.493792  Gnorm:      0.022878  CPU:    5.709
  Cycle:    103 Energy:      -153.494058  Gnorm:      0.018924  CPU:    5.767
  Cycle:    104 Energy:      -153.494186  Gnorm:      0.015189  CPU:    5.814
  Cycle:    105 Energy:      -153.494397  Gnorm:      0.019162  CPU:    5.872
  Cycle:    106 Energy:      -153.494540  Gnorm:      0.014575  CPU:    5.919
  Cycle:    107 Energy:      -153.494642  Gnorm:      0.015792  CPU:    5.966
  Cycle:    108 Energy:      -153.494850  Gnorm:      0.016479  CPU:    6.025
  Cycle:    109 Energy:      -153.495195  Gnorm:      0.025601  CPU:    6.082
  Cycle:    110 Energy:      -153.497272  Gnorm:      0.045373  CPU:    6.162
  ** Hessian calculated **
  Cycle:    111 Energy:      -153.498277  Gnorm:      0.036452  CPU:    6.244
  Cycle:    112 Energy:      -153.498857  Gnorm:      0.029890  CPU:    6.291
  Cycle:    113 Energy:      -153.499351  Gnorm:      0.031672  CPU:    6.351
  Cycle:    114 Energy:      -153.500002  Gnorm:      0.031738  CPU:    6.409
  Cycle:    115 Energy:      -153.500800  Gnorm:      0.037350  CPU:    6.467
  Cycle:    116 Energy:      -153.501952  Gnorm:      0.040995  CPU:    6.525
  Cycle:    117 Energy:      -153.502834  Gnorm:      0.051169  CPU:    6.571
  Cycle:    118 Energy:      -153.504376  Gnorm:      0.057283  CPU:    6.629
  Cycle:    119 Energy:      -153.506932  Gnorm:      0.053750  CPU:    6.686
  Cycle:    120 Energy:      -153.511846  Gnorm:      0.092928  CPU:    6.744
  ** Hessian calculated **
  Cycle:    121 Energy:      -153.516980  Gnorm:      0.068622  CPU:    6.826
  Cycle:    122 Energy:      -153.520850  Gnorm:      0.081767  CPU:    6.884
  Cycle:    123 Energy:      -153.525759  Gnorm:      0.075879  CPU:    6.931
  Cycle:    124 Energy:      -153.528128  Gnorm:      0.077761  CPU:    6.978
  Cycle:    125 Energy:      -153.532115  Gnorm:      0.072486  CPU:    7.035
  Cycle:    126 Energy:      -153.536059  Gnorm:      0.090767  CPU:    7.093
  Cycle:    127 Energy:      -153.539728  Gnorm:      0.086816  CPU:    7.151
  Cycle:    128 Energy:      -153.545205  Gnorm:      0.074741  CPU:    7.209
  Cycle:    129 Energy:      -153.552476  Gnorm:      0.114957  CPU:    7.256
  Cycle:    130 Energy:      -153.564447  Gnorm:      0.160015  CPU:    7.315
  ** Hessian calculated **
  Cycle:    131 Energy:      -153.575768  Gnorm:      0.124062  CPU:    7.399
  Cycle:    132 Energy:      -153.585896  Gnorm:      0.096395  CPU:    7.457
  Cycle:    133 Energy:      -153.594780  Gnorm:      0.131490  CPU:    7.516
  Cycle:    134 Energy:      -153.603335  Gnorm:      0.130654  CPU:    7.574
  Cycle:    135 Energy:      -153.614671  Gnorm:      0.124631  CPU:    7.633
  Cycle:    136 Energy:      -153.631012  Gnorm:      0.157623  CPU:    7.691
  Cycle:    137 Energy:      -153.648856  Gnorm:      0.210772  CPU:    7.751
  Cycle:    138 Energy:      -153.674061  Gnorm:      0.225315  CPU:    7.811
  Cycle:    139 Energy:      -153.711519  Gnorm:      0.196958  CPU:    7.871
  Cycle:    140 Energy:      -153.807192  Gnorm:      0.369007  CPU:    7.931
  ** Hessian calculated **
  Cycle:    141 Energy:      -154.015761  Gnorm:      0.357238  CPU:    8.043
  Cycle:    142 Energy:      -154.023569  Gnorm:      0.298672  CPU:    8.104
  ** Hessian calculated **
  Cycle:    143 Energy:      -154.060612  Gnorm:      0.206515  CPU:    8.192
  Cycle:    144 Energy:      -154.093079  Gnorm:      0.217230  CPU:    8.253
  Cycle:    145 Energy:      -154.141625  Gnorm:      0.262179  CPU:    8.314
  Cycle:    146 Energy:      -154.229395  Gnorm:      0.340680  CPU:    8.375
  Cycle:    147 Energy:      -154.352692  Gnorm:      0.421876  CPU:    8.436
  Cycle:    148 Energy:      -154.427996  Gnorm:      0.383466  CPU:    8.485
  Cycle:    149 Energy:      -154.533344  Gnorm:      0.268384  CPU:    8.533
  Cycle:    150 Energy:      -154.598418  Gnorm:      0.305879  CPU:    8.594
  Cycle:    151 Energy:      -154.687525  Gnorm:      0.445038  CPU:    8.655
  Cycle:    152 Energy:      -154.770215  Gnorm:      0.371654  CPU:    8.717
  ** Hessian calculated **
  Cycle:    153 Energy:      -154.830883  Gnorm:      0.277577  CPU:    8.809
  Cycle:    154 Energy:      -154.879811  Gnorm:      0.270168  CPU:    8.870
  Cycle:    155 Energy:      -154.977835  Gnorm:      0.300835  CPU:    8.932
  Cycle:    156 Energy:      -155.090926  Gnorm:      0.425214  CPU:    8.994
  Cycle:    157 Energy:      -155.295680  Gnorm:      0.553290  CPU:    9.058
  Cycle:    158 Energy:      -155.530367  Gnorm:      0.424710  CPU:    9.122
  Cycle:    159 Energy:      -155.747324  Gnorm:      0.399773  CPU:    9.175
  Cycle:    160 Energy:      -155.892665  Gnorm:      0.413682  CPU:    9.228
  Cycle:    161 Energy:      -156.075006  Gnorm:      0.360680  CPU:    9.295
  Cycle:    162 Energy:      -156.146580  Gnorm:      0.296882  CPU:    9.350
  ** Hessian calculated **
  Cycle:    163 Energy:      -156.612097  Gnorm:      0.159091  CPU:    9.476
  Cycle:    164 Energy:      -156.691236  Gnorm:      0.137062  CPU:    9.531
  Cycle:    165 Energy:      -156.692695  Gnorm:      0.119225  CPU:    9.598
  ** Hessian calculated **
  Cycle:    166 Energy:      -156.700355  Gnorm:      0.080541  CPU:    9.700
  Cycle:    167 Energy:      -156.705042  Gnorm:      0.064948  CPU:    9.766
  Cycle:    168 Energy:      -156.710502  Gnorm:      0.078434  CPU:    9.833
  Cycle:    169 Energy:      -156.716276  Gnorm:      0.063346  CPU:    9.899
  Cycle:    170 Energy:      -156.720477  Gnorm:      0.058570  CPU:    9.966
  Cycle:    171 Energy:      -156.722222  Gnorm:      0.036870  CPU:   10.020
  Cycle:    172 Energy:      -156.723645  Gnorm:      0.036152  CPU:   10.073
  Cycle:    173 Energy:      -156.724629  Gnorm:      0.028958  CPU:   10.139
  Cycle:    174 Energy:      -156.725642  Gnorm:      0.020313  CPU:   10.206
  Cycle:    175 Energy:      -156.726276  Gnorm:      0.030795  CPU:   10.259
  ** Hessian calculated **
  Cycle:    176 Energy:      -156.729656  Gnorm:      0.028008  CPU:   10.411
  Cycle:    177 Energy:      -156.733580  Gnorm:      0.022434  CPU:   10.490
  Cycle:    178 Energy:      -156.736522  Gnorm:      0.012999  CPU:   10.556
  Cycle:    179 Energy:      -156.737211  Gnorm:      0.002737  CPU:   10.610
  Cycle:    180 Energy:      -156.737225  Gnorm:      0.000584  CPU:   10.676


  **** Optimisation achieved ****


  Final energy =    -156.73722591 eV      
  Final Gnorm  =       0.00021678

  Components of energy : 

--------------------------------------------------------------------------------
  Interatomic potentials     =          12.09828682 eV    
  Monopole - monopole (real) =         -66.63462636 eV    
  Monopole - monopole (recip)=        -102.20088637 eV    
  Monopole - monopole (total)=        -168.83551272 eV    
--------------------------------------------------------------------------------
  Total lattice energy       =        -156.73722591 eV    
--------------------------------------------------------------------------------
  Total lattice energy       =          -15122.7464 kJ/(mole unit cells)
--------------------------------------------------------------------------------

  Final fractional coordinates of atoms :

--------------------------------------------------------------------------------
   No.  Atomic        x           y          z          Radius
        Label       (Frac)      (Frac)     (Frac)       (Angs) 
--------------------------------------------------------------------------------
     1  Ti    c     0.965976    0.360036    0.002299    0.000000
     2  Ti    c     0.330897    0.581081    0.001036    0.000000
     3  Ti    c     0.794296    0.978314    0.448900    0.000000
     4  Ti    c     0.743660    0.993850    0.001032    0.000000
     5  O     c     0.977457    0.655642    0.994472    0.000000
     6  O     c     0.548203    0.284262    0.508753    0.000000
     7  O     c     0.155277    0.999198    0.500957    0.000000
     8  O     c     0.825475    0.669389    0.500960    0.000000
     9  O     c     0.107305    0.995768    0.029957    0.000000
    10  O     c     0.662548    0.340730    0.994476    0.000000
    11  O     c     0.357900    0.246367    0.029957    0.000000
    12  O     c     0.519329    0.803946    0.999562    0.000000
--------------------------------------------------------------------------------

  Final Cartesian lattice vectors (Angstroms) :

        3.101721    1.011522   -5.223590
        0.730638    5.861672   -1.742611
        0.026127   -0.780207    7.172535


  Final cell parameters and derivatives :

--------------------------------------------------------------------------------
       a            6.158713 Angstrom     dE/de1(xx)    -0.001278 eV/strain
       b            6.158711 Angstrom     dE/de2(yy)     0.000025 eV/strain
       c            7.214892 Angstrom     dE/de3(zz)     0.000121 eV/strain
       alpha      112.568191 Degrees      dE/de4(yz)    -0.000117 eV/strain
       beta       149.217964 Degrees      dE/de5(xz)    -0.000159 eV/strain
       gamma       62.867021 Degrees      dE/de6(xy)     0.001042 eV/strain
--------------------------------------------------------------------------------

  Primitive cell volume =           124.619442 Angs**3

  Density of cell =      4.257633 g/cm**3

  Non-primitive cell volume =           124.619442 Angs**3


  Final internal derivatives :

--------------------------------------------------------------------------------
   No.  Atomic          a             b             c           Radius
        Label          (eV)          (eV)          (eV)        (eV/Angs)
--------------------------------------------------------------------------------
      1 Ti    c       0.000000      0.000000      0.000000      0.000000
      2 Ti    c       0.000270      0.000893     -0.000309      0.000000
      3 Ti    c      -0.000926      0.001156     -0.000713      0.000000
      4 Ti    c      -0.002675     -0.002300      0.002548      0.000000
      5 O     c       0.000513      0.000691     -0.000655      0.000000
      6 O     c      -0.000283      0.000050      0.000921      0.000000
      7 O     c       0.000469     -0.000006     -0.001091      0.000000
      8 O     c      -0.000195     -0.000551     -0.000233      0.000000
      9 O     c       0.002996      0.000841     -0.001953      0.000000
     10 O     c       0.001883      0.002208     -0.001825      0.000000
     11 O     c      -0.001461     -0.002566      0.002712      0.000000
     12 O     c      -0.000683      0.000453      0.000440      0.000000
--------------------------------------------------------------------------------
  Maximum abs         0.002996      0.002566      0.002712      0.000000
--------------------------------------------------------------------------------


  Time to end of optimisation =      10.7294 seconds


  Peak dynamic memory used =       1.84 MB 


  Timing analysis for GULP :

--------------------------------------------------------------------------------
  Task / Subroutine                                          Time (Seconds)
--------------------------------------------------------------------------------
  Calculation of reciprocal space energy and derivatives          0.2447
  Calculation of real space energy and derivatives               10.4357
  Calculation and manipulation of Hessian matrix                  0.0019
  Calculation of matrix inversion                                 0.0034
  Global summation overhead                                       0.0011
--------------------------------------------------------------------------------
  Total CPU time                                                 10.7294
--------------------------------------------------------------------------------


  Job Finished at 11:26.58 29th May        2024                               

