********************************************************************************
*                       GENERAL UTILITY LATTICE PROGRAM                        *
*                                 Julian Gale                                  *
*                       Curtin Institute for Computation                       *
*                    School of Molecular and Life Sciences                     *
*                    Curtin University, Western Australia                      *
********************************************************************************
* Version = 6.0.0 * Last modified =  12th July 2021                            *
********************************************************************************
*  optimise     - perform optimisation run                                     *
*  conp         - constant pressure calculation                                *
*  conjugate    - use conjugate gradients minimiser                            *
********************************************************************************

  Job Started  at 11:26.15 29th May        2024                               

  Number of CPUs =     1


  Total number of configurations input =      1

********************************************************************************
*  Input for Configuration =   1                                               *
********************************************************************************

  Formula = Ti4O8                                                       

  Number of irreducible atoms/shells =      12


  Total number atoms/shells =      12

  Dimensionality = 3               :  Bulk   



  Cartesian lattice vectors (Angstroms) :

        4.652726    0.540159   -0.258413
       -0.651256    5.539988   -0.146492
        0.264553    0.166282    5.110480

  Cell parameters (Angstroms/Degrees):

  a =       4.6911    alpha =  89.9995
  b =       5.5801    beta  =  89.9998
  c =       5.1200    gamma =  89.9995

  Initial cell volume =         134.024851 Angs**3

  Temperature of configuration =   0.00     K 

  Pressure of configuration =         0.000 GPa 

  Fractional coordinates of asymmetric unit :

--------------------------------------------------------------------------------
   No.  Atomic       x           y          z         Charge      Occupancy
        Label      (Frac)      (Frac)     (Frac)        (e)         (Frac)  
--------------------------------------------------------------------------------
      1 Ti    c    0.827044    0.000095    0.317596     2.19600    1.000000    
      2 Ti    c    0.609223 *  0.917225 *  0.638177 *   2.19600    1.000000    
      3 Ti    c    0.562867 *  0.215617 *  0.156170 *   2.19600    1.000000    
      4 Ti    c    0.827041 *  0.650746 *  0.799596 *   2.19600    1.000000    
      5 O     c    0.127205 *  0.435217 *  0.961016 *  -1.09800    1.000000    
      6 O     c    0.345037 *  0.168748 *  0.799590 *  -1.09800    1.000000    
      7 O     c    0.609217 *  0.697614 *  0.156160 *  -1.09800    1.000000    
      8 O     c    0.080883 *  0.917216 *  0.961019 *  -1.09800    1.000000    
      9 O     c    0.345038 *  0.482095 *  0.317590 *  -1.09800    1.000000    
     10 O     c    0.127207 *  0.215625 *  0.479017 *  -1.09800    1.000000    
     11 O     c    0.562871 *  0.435225 *  0.638159 *  -1.09800    1.000000    
     12 O     c    0.080875 *  0.697624 *  0.479018 *  -1.09800    1.000000    
--------------------------------------------------------------------------------



********************************************************************************
*  General input information                                                   *
********************************************************************************

  Species output for all configurations : 

--------------------------------------------------------------------------------
  Species    Type    Atomic    Atomic    Charge       Radii (Angs)     Library
                     Number     Mass       (e)     Cova   Ionic  VDW   Symbol
--------------------------------------------------------------------------------
    Ti       Core       22      47.88   2.196000   1.470  0.000  2.190          
    O        Core        8      16.00  -1.098000   0.730  0.000  1.360          
--------------------------------------------------------------------------------


  Lattice summation method               =    Ewald          (3-D)
                                         =    Parry          (2-D)
                                         =    Saunders et al (1-D)
  Accuracy factor for lattice sums       =   12.000


  Analytic derivatives to be used

  Time limit = Infinity

  Maximum range for interatomic potentials =    100000.000000 Angstroms

  General interatomic potentials :

--------------------------------------------------------------------------------
Atom  Types   Potential      Parameter       Value         Units   Cutoffs(Ang)
  1     2                                                            Min /  Max 
--------------------------------------------------------------------------------
Ti   c Ti   c Buckingham    Buckingham A     31120.100    eV        0.000 15.000
                            Buckingham rho  0.15400000    Ang       
                            Buckingham C     5.2500000    eV*Ang^6  
--------------------------------------------------------------------------------
O    c O    c Buckingham    Buckingham A     11782.700    eV        0.000 15.000
                            Buckingham rho  0.23400000    Ang       
                            Buckingham C     30.220000    eV*Ang^6  
--------------------------------------------------------------------------------
O    c Ti   c Buckingham    Buckingham A     16957.500    eV        0.000 15.000
                            Buckingham rho  0.19400000    Ang       
                            Buckingham C     12.590000    eV*Ang^6  
--------------------------------------------------------------------------------
Ti   c Ti   c Lennard       Lennard-Jones A  1.0000000    eV*Ang^m  0.000 15.000
                            Lennard-Jones B  0.0000000    eV*Ang^n  
                            Exponent m        12          None
                            Exponent n         6          None
--------------------------------------------------------------------------------
O    c O    c Lennard       Lennard-Jones A  1.0000000    eV*Ang^m  0.000 15.000
                            Lennard-Jones B  0.0000000    eV*Ang^n  
                            Exponent m        12          None
                            Exponent n         6          None
--------------------------------------------------------------------------------
O    c Ti   c Lennard       Lennard-Jones A  1.0000000    eV*Ang^m  0.000 15.000
                            Lennard-Jones B  0.0000000    eV*Ang^n  
                            Exponent m        12          None
                            Exponent n         6          None
--------------------------------------------------------------------------------

********************************************************************************
*  Output for configuration   1                                                *
********************************************************************************


  Components of energy : 

--------------------------------------------------------------------------------
  Interatomic potentials     =          20.22566906 eV    
  Monopole - monopole (real) =          -6.77915763 eV    
  Monopole - monopole (recip)=         -86.87108744 eV    
  Monopole - monopole (total)=         -93.65024507 eV    
--------------------------------------------------------------------------------
  Total lattice energy       =         -73.42457602 eV    
--------------------------------------------------------------------------------
  Total lattice energy       =           -7084.3492 kJ/(mole unit cells)
--------------------------------------------------------------------------------


  Number of variables =       39

  Maximum number of calculations  =          1000
  Maximum Hessian update interval =            10
  Maximum step size               =   1.000000000
  Maximum parameter tolerance     =   0.000010000
  Maximum function  tolerance     =   0.000010000
  Maximum gradient  tolerance     =   0.001000000
  Maximum gradient  component     =   0.010000000

  Symmetry not applied to optimisation

  Cell parameters to be optimised using strains

  Conjugate gradient optimiser to be used

  Lower half triangular hessian to be used

  Minimiser to switch to BFGS with exact hessian
  When gradient norm is less than     0.500000

  Start of bulk optimisation :

  Cycle:      0 Energy:       -73.424576  Gnorm:      9.805145  CPU:    0.021
  Cycle:      1 Energy:      -113.322118  Gnorm:      5.381916  CPU:    0.044
  Cycle:      2 Energy:      -121.783484  Gnorm:      3.111444  CPU:    0.063
  Cycle:      3 Energy:      -133.318351  Gnorm:      2.527002  CPU:    0.085
  Cycle:      4 Energy:      -138.035473  Gnorm:      2.039197  CPU:    0.104
  Cycle:      5 Energy:      -141.566514  Gnorm:      1.862432  CPU:    0.129
  Cycle:      6 Energy:      -144.048120  Gnorm:      1.722057  CPU:    0.153
  Cycle:      7 Energy:      -145.984906  Gnorm:      1.201115  CPU:    0.174
  Cycle:      8 Energy:      -146.976750  Gnorm:      0.736486  CPU:    0.200
  Cycle:      9 Energy:      -147.533135  Gnorm:      0.644443  CPU:    0.227
  Cycle:     10 Energy:      -147.795445  Gnorm:      0.530331  CPU:    0.248
  Cycle:     11 Energy:      -148.126792  Gnorm:      0.627677  CPU:    0.274
  Cycle:     12 Energy:      -149.150223  Gnorm:      0.986359  CPU:    0.317
  Cycle:     13 Energy:      -150.155117  Gnorm:      0.677176  CPU:    0.352
  Cycle:     14 Energy:      -150.784978  Gnorm:      0.708862  CPU:    0.388
  Cycle:     15 Energy:      -151.124128  Gnorm:      0.486380  CPU:    0.425
  ** Hessian calculated **
  Cycle:     16 Energy:      -151.342706  Gnorm:      0.283700  CPU:    0.499
  Cycle:     17 Energy:      -151.536817  Gnorm:      0.364836  CPU:    0.544
  Cycle:     18 Energy:      -151.807084  Gnorm:      0.420502  CPU:    0.588
  Cycle:     19 Energy:      -152.160616  Gnorm:      0.520248  CPU:    0.625
  Cycle:     20 Energy:      -152.474113  Gnorm:      0.470377  CPU:    0.654
  Cycle:     21 Energy:      -152.681738  Gnorm:      0.412344  CPU:    0.681
  Cycle:     22 Energy:      -152.990286  Gnorm:      0.400111  CPU:    0.716
  Cycle:     23 Energy:      -153.215176  Gnorm:      0.405352  CPU:    0.743
  Cycle:     24 Energy:      -153.515067  Gnorm:      0.461858  CPU:    0.777
  Cycle:     25 Energy:      -153.748066  Gnorm:      0.319213  CPU:    0.804
  ** Hessian calculated **
  Cycle:     26 Energy:      -153.868471  Gnorm:      0.218924  CPU:    0.869
  Cycle:     27 Energy:      -154.062989  Gnorm:      0.323857  CPU:    0.903
  Cycle:     28 Energy:      -154.439664  Gnorm:      0.461952  CPU:    0.952
  Cycle:     29 Energy:      -154.626750  Gnorm:      0.603513  CPU:    0.989
  Cycle:     30 Energy:      -154.958020  Gnorm:      0.421320  CPU:    1.026
  Cycle:     31 Energy:      -155.234898  Gnorm:      0.295627  CPU:    1.073
  Cycle:     32 Energy:      -155.376482  Gnorm:      0.246027  CPU:    1.111
  Cycle:     33 Energy:      -155.454786  Gnorm:      0.185587  CPU:    1.148
  Cycle:     34 Energy:      -155.517552  Gnorm:      0.216566  CPU:    1.195
  Cycle:     35 Energy:      -155.605065  Gnorm:      0.228327  CPU:    1.241
  ** Hessian calculated **
  Cycle:     36 Energy:      -155.814713  Gnorm:      0.226469  CPU:    1.326
  Cycle:     37 Energy:      -155.961490  Gnorm:      0.077276  CPU:    1.364
  Cycle:     38 Energy:      -155.972906  Gnorm:      0.024813  CPU:    1.412
  Cycle:     39 Energy:      -155.975817  Gnorm:      0.035153  CPU:    1.460
  Cycle:     40 Energy:      -156.006405  Gnorm:      0.230432  CPU:    1.546
  ** Hessian calculated **
  Cycle:     41 Energy:      -156.058201  Gnorm:      0.147795  CPU:    1.626
  Cycle:     42 Energy:      -156.076775  Gnorm:      0.090029  CPU:    1.666
  Cycle:     43 Energy:      -156.091940  Gnorm:      0.097288  CPU:    1.716
  Cycle:     44 Energy:      -156.103999  Gnorm:      0.083617  CPU:    1.766
  Cycle:     45 Energy:      -156.124924  Gnorm:      0.101808  CPU:    1.815
  Cycle:     46 Energy:      -156.150301  Gnorm:      0.142058  CPU:    1.866
  Cycle:     47 Energy:      -156.187899  Gnorm:      0.124331  CPU:    1.916
  Cycle:     48 Energy:      -156.214709  Gnorm:      0.101820  CPU:    1.956
  Cycle:     49 Energy:      -156.236892  Gnorm:      0.087623  CPU:    2.006
  Cycle:     50 Energy:      -156.246752  Gnorm:      0.056527  CPU:    2.047
  ** Hessian calculated **
  Cycle:     51 Energy:      -156.275822  Gnorm:      0.008334  CPU:    2.138
  Cycle:     52 Energy:      -156.275997  Gnorm:      0.001031  CPU:    2.188


  **** Optimisation achieved ****


  Final energy =    -156.27600189 eV      
  Final Gnorm  =       0.00019440

  Components of energy : 

--------------------------------------------------------------------------------
  Interatomic potentials     =          12.63352742 eV    
  Monopole - monopole (real) =         -69.65531107 eV    
  Monopole - monopole (recip)=         -99.25421823 eV    
  Monopole - monopole (total)=        -168.90952930 eV    
--------------------------------------------------------------------------------
  Total lattice energy       =        -156.27600189 eV    
--------------------------------------------------------------------------------
  Total lattice energy       =          -15078.2453 kJ/(mole unit cells)
--------------------------------------------------------------------------------

  Final fractional coordinates of atoms :

--------------------------------------------------------------------------------
   No.  Atomic        x           y          z          Radius
        Label       (Frac)      (Frac)     (Frac)       (Angs) 
--------------------------------------------------------------------------------
     1  Ti    c     0.827044    0.000095    0.317596    0.000000
     2  Ti    c     0.439852    0.785947    0.707218    0.000000
     3  Ti    c     0.258485    0.341237    0.890080    0.000000
     4  Ti    c     0.919230    0.528109    0.551502    0.000000
     5  O     c     0.005120    0.283577    0.638878    0.000000
     6  O     c     0.480823    0.075633    0.687611    0.000000
     7  O     c     0.560521    0.918549    0.084262    0.000000
     8  O     c     0.062978    0.765656    0.913804    0.000000
     9  O     c     0.290952    0.573339    0.326536    0.000000
    10  O     c     0.969249    0.235011    0.143715    0.000000
    11  O     c     0.532094    0.485029    0.677862    0.000000
    12  O     c     0.812308    0.749907    0.447420    0.000000
--------------------------------------------------------------------------------

  Final Cartesian lattice vectors (Angstroms) :

        5.103465    0.186564    0.268302
       -1.219617    6.155565   -1.478974
        1.211402   -1.293578    4.646009


  Final cell parameters and derivatives :

--------------------------------------------------------------------------------
       a            5.113917 Angstrom     dE/de1(xx)     0.001312 eV/strain
       b            6.447155 Angstrom     dE/de2(yy)     0.000676 eV/strain
       c            4.972549 Angstrom     dE/de3(zz)    -0.001239 eV/strain
       alpha      120.583852 Degrees      dE/de4(yz)     0.000386 eV/strain
       beta        73.581613 Degrees      dE/de5(xz)     0.000019 eV/strain
       gamma       99.554659 Degrees      dE/de6(xy)    -0.000682 eV/strain
--------------------------------------------------------------------------------

  Primitive cell volume =           135.334737 Angs**3

  Density of cell =      3.920530 g/cm**3

  Non-primitive cell volume =           135.334737 Angs**3


  Final internal derivatives :

--------------------------------------------------------------------------------
   No.  Atomic          a             b             c           Radius
        Label          (eV)          (eV)          (eV)        (eV/Angs)
--------------------------------------------------------------------------------
      1 Ti    c       0.000000      0.000000      0.000000      0.000000
      2 Ti    c      -0.001611      0.001666     -0.001475      0.000000
      3 Ti    c      -0.001295      0.000240      0.000045      0.000000
      4 Ti    c       0.002707     -0.001385     -0.002218      0.000000
      5 O     c       0.000601     -0.000296      0.001472      0.000000
      6 O     c       0.000047      0.000267      0.000043      0.000000
      7 O     c      -0.002011      0.001891     -0.000499      0.000000
      8 O     c       0.000294     -0.000962     -0.001140      0.000000
      9 O     c       0.000524     -0.002136     -0.000491      0.000000
     10 O     c       0.000316      0.000956      0.000024      0.000000
     11 O     c      -0.000067      0.000008     -0.000646      0.000000
     12 O     c       0.000283     -0.002686      0.001739      0.000000
--------------------------------------------------------------------------------
  Maximum abs         0.002707      0.002686      0.002218      0.000000
--------------------------------------------------------------------------------


  Time to end of optimisation =       2.2384 seconds


  Peak dynamic memory used =       1.84 MB 


  Timing analysis for GULP :

--------------------------------------------------------------------------------
  Task / Subroutine                                          Time (Seconds)
--------------------------------------------------------------------------------
  Calculation of reciprocal space energy and derivatives          0.0728
  Calculation of real space energy and derivatives                2.1453
  Calculation and manipulation of Hessian matrix                  0.0006
  Calculation of matrix inversion                                 0.0010
  Global summation overhead                                       0.0003
--------------------------------------------------------------------------------
  Total CPU time                                                  2.2384
--------------------------------------------------------------------------------


  Job Finished at 11:26.17 29th May        2024                               

