********************************************************************************
*                       GENERAL UTILITY LATTICE PROGRAM                        *
*                                 Julian Gale                                  *
*                       Curtin Institute for Computation                       *
*                    School of Molecular and Life Sciences                     *
*                    Curtin University, Western Australia                      *
********************************************************************************
* Version = 6.0.0 * Last modified =  12th July 2021                            *
********************************************************************************
*  optimise     - perform optimisation run                                     *
*  conp         - constant pressure calculation                                *
*  conjugate    - use conjugate gradients minimiser                            *
********************************************************************************

  Job Started  at 11:26.02 29th May        2024                               

  Number of CPUs =     1


  Total number of configurations input =      1

********************************************************************************
*  Input for Configuration =   1                                               *
********************************************************************************

  Formula = Ti4O8                                                       

  Number of irreducible atoms/shells =      12


  Total number atoms/shells =      12

  Dimensionality = 3               :  Bulk   



  Cartesian lattice vectors (Angstroms) :

        6.190072    1.250073    0.165253
       -8.960225   11.901818  -12.218642
        5.832811   -7.335408    9.172828

  Cell parameters (Angstroms/Degrees):

  a =       6.3172    alpha = 174.8474
  b =      19.2674    beta  =  69.9132
  c =      13.1138    gamma = 110.4897

  Initial cell volume =         134.024851 Angs**3

  Temperature of configuration =   0.00     K 

  Pressure of configuration =         0.000 GPa 

  Fractional coordinates of asymmetric unit :

--------------------------------------------------------------------------------
   No.  Atomic       x           y          z         Charge      Occupancy
        Label      (Frac)      (Frac)     (Frac)        (e)         (Frac)  
--------------------------------------------------------------------------------
      1 Ti    c    0.552594    0.194546    0.696633     2.19600    1.000000    
      2 Ti    c    0.725389 *  0.495798 *  0.523891 *   2.19600    1.000000    
      3 Ti    c    0.595197 *  0.539407 *  0.094057 *   2.19600    1.000000    
      4 Ti    c    0.121199 *  0.065424 *  0.568105 *   2.19600    1.000000    
      5 O     c    0.251387 *  0.021825 *  0.049935 *  -1.09800    1.000000    
      6 O     c    0.444792 *  0.512069 *  0.451530 *  -1.09800    1.000000    
      7 O     c    0.272129 *  0.210673 *  0.624114 *  -1.09800    1.000000    
      8 O     c    0.121057 *  0.539422 *  0.568040 *  -1.09800    1.000000    
      9 O     c    0.746139 *  0.684675 *  0.150094 *  -1.09800    1.000000    
     10 O     c    0.918806 *  0.037995 *  0.925440 *  -1.09800    1.000000    
     11 O     c    0.078583 *  0.668533 *  0.222593 *  -1.09800    1.000000    
     12 O     c    0.595083 *  0.065450 *  0.094082 *  -1.09800    1.000000    
--------------------------------------------------------------------------------



********************************************************************************
*  General input information                                                   *
********************************************************************************

  Species output for all configurations : 

--------------------------------------------------------------------------------
  Species    Type    Atomic    Atomic    Charge       Radii (Angs)     Library
                     Number     Mass       (e)     Cova   Ionic  VDW   Symbol
--------------------------------------------------------------------------------
    Ti       Core       22      47.88   2.196000   1.470  0.000  2.190          
    O        Core        8      16.00  -1.098000   0.730  0.000  1.360          
--------------------------------------------------------------------------------


  Lattice summation method               =    Ewald          (3-D)
                                         =    Parry          (2-D)
                                         =    Saunders et al (1-D)
  Accuracy factor for lattice sums       =   12.000


  Analytic derivatives to be used

  Time limit = Infinity

  Maximum range for interatomic potentials =    100000.000000 Angstroms

  General interatomic potentials :

--------------------------------------------------------------------------------
Atom  Types   Potential      Parameter       Value         Units   Cutoffs(Ang)
  1     2                                                            Min /  Max 
--------------------------------------------------------------------------------
Ti   c Ti   c Buckingham    Buckingham A     31120.100    eV        0.000 15.000
                            Buckingham rho  0.15400000    Ang       
                            Buckingham C     5.2500000    eV*Ang^6  
--------------------------------------------------------------------------------
O    c O    c Buckingham    Buckingham A     11782.700    eV        0.000 15.000
                            Buckingham rho  0.23400000    Ang       
                            Buckingham C     30.220000    eV*Ang^6  
--------------------------------------------------------------------------------
O    c Ti   c Buckingham    Buckingham A     16957.500    eV        0.000 15.000
                            Buckingham rho  0.19400000    Ang       
                            Buckingham C     12.590000    eV*Ang^6  
--------------------------------------------------------------------------------
Ti   c Ti   c Lennard       Lennard-Jones A  1.0000000    eV*Ang^m  0.000 15.000
                            Lennard-Jones B  0.0000000    eV*Ang^n  
                            Exponent m        12          None
                            Exponent n         6          None
--------------------------------------------------------------------------------
O    c O    c Lennard       Lennard-Jones A  1.0000000    eV*Ang^m  0.000 15.000
                            Lennard-Jones B  0.0000000    eV*Ang^n  
                            Exponent m        12          None
                            Exponent n         6          None
--------------------------------------------------------------------------------
O    c Ti   c Lennard       Lennard-Jones A  1.0000000    eV*Ang^m  0.000 15.000
                            Lennard-Jones B  0.0000000    eV*Ang^n  
                            Exponent m        12          None
                            Exponent n         6          None
--------------------------------------------------------------------------------

********************************************************************************
*  Output for configuration   1                                                *
********************************************************************************


  Components of energy : 

--------------------------------------------------------------------------------
  Interatomic potentials     =          30.94924692 eV    
  Monopole - monopole (real) =          19.29034022 eV    
  Monopole - monopole (recip)=         -73.20589119 eV    
  Monopole - monopole (total)=         -53.91555096 eV    
--------------------------------------------------------------------------------
  Total lattice energy       =         -22.96630404 eV    
--------------------------------------------------------------------------------
  Total lattice energy       =           -2215.8973 kJ/(mole unit cells)
--------------------------------------------------------------------------------


  Number of variables =       39

  Maximum number of calculations  =          1000
  Maximum Hessian update interval =            10
  Maximum step size               =   1.000000000
  Maximum parameter tolerance     =   0.000010000
  Maximum function  tolerance     =   0.000010000
  Maximum gradient  tolerance     =   0.001000000
  Maximum gradient  component     =   0.010000000

  Symmetry not applied to optimisation

  Cell parameters to be optimised using strains

  Conjugate gradient optimiser to be used

  Lower half triangular hessian to be used

  Minimiser to switch to BFGS with exact hessian
  When gradient norm is less than     0.500000

  Start of bulk optimisation :

  Cycle:      0 Energy:       -22.966304  Gnorm:     48.822732  CPU:    0.043
  Cycle:      1 Energy:       -48.698825  Gnorm:     98.958590  CPU:    0.168
  Cycle:      2 Energy:      -110.054915  Gnorm:     15.945307  CPU:    0.263
  Cycle:      3 Energy:      -115.723290  Gnorm:      9.216639  CPU:    0.326
  Cycle:      4 Energy:      -119.644793  Gnorm:      7.680031  CPU:    0.404
  Cycle:      5 Energy:      -124.307034  Gnorm:      9.762220  CPU:    0.483
  Cycle:      6 Energy:      -127.537263  Gnorm:      9.361335  CPU:    0.546
  Cycle:      7 Energy:      -133.901984  Gnorm:      7.885887  CPU:    0.624
  Cycle:      8 Energy:      -136.630822  Gnorm:      4.342283  CPU:    0.686
  Cycle:      9 Energy:      -139.000949  Gnorm:      3.153378  CPU:    0.763
  Cycle:     10 Energy:      -140.586970  Gnorm:      3.092303  CPU:    0.840
  Cycle:     11 Energy:      -142.760563  Gnorm:      4.095200  CPU:    0.931
  Cycle:     12 Energy:      -144.460441  Gnorm:      3.471339  CPU:    0.993
  Cycle:     13 Energy:      -145.239140  Gnorm:      2.577634  CPU:    1.054
  Cycle:     14 Energy:      -145.969593  Gnorm:      2.630572  CPU:    1.131
  Cycle:     15 Energy:      -146.394870  Gnorm:      2.001209  CPU:    1.193
  Cycle:     16 Energy:      -146.765979  Gnorm:      2.232618  CPU:    1.269
  Cycle:     17 Energy:      -147.278333  Gnorm:      2.473212  CPU:    1.346
  Cycle:     18 Energy:      -147.872726  Gnorm:      2.231371  CPU:    1.423
  Cycle:     19 Energy:      -148.269940  Gnorm:      1.819215  CPU:    1.485
  Cycle:     20 Energy:      -148.485994  Gnorm:      1.515852  CPU:    1.547
  Cycle:     21 Energy:      -148.711179  Gnorm:      1.415614  CPU:    1.624
  Cycle:     22 Energy:      -149.070838  Gnorm:      1.257478  CPU:    1.702
  Cycle:     23 Energy:      -149.271564  Gnorm:      1.398745  CPU:    1.764
  Cycle:     24 Energy:      -149.382074  Gnorm:      1.170567  CPU:    1.827
  Cycle:     25 Energy:      -149.831669  Gnorm:      1.668027  CPU:    1.905
  Cycle:     26 Energy:      -150.153758  Gnorm:      2.349163  CPU:    1.969
  Cycle:     27 Energy:      -150.494664  Gnorm:      1.683491  CPU:    2.033
  Cycle:     28 Energy:      -151.063839  Gnorm:      2.441611  CPU:    2.112
  Cycle:     29 Energy:      -151.328197  Gnorm:      1.836406  CPU:    2.177
  Cycle:     30 Energy:      -151.545292  Gnorm:      1.685785  CPU:    2.242
  Cycle:     31 Energy:      -151.700623  Gnorm:      1.338780  CPU:    2.307
  Cycle:     32 Energy:      -151.871855  Gnorm:      0.848277  CPU:    2.387
  Cycle:     33 Energy:      -151.984169  Gnorm:      1.054689  CPU:    2.467
  Cycle:     34 Energy:      -152.244694  Gnorm:      1.097362  CPU:    2.547
  Cycle:     35 Energy:      -152.307061  Gnorm:      1.001714  CPU:    2.626
  Cycle:     36 Energy:      -152.397761  Gnorm:      0.834682  CPU:    2.706
  Cycle:     37 Energy:      -152.494139  Gnorm:      1.139396  CPU:    2.785
  Cycle:     38 Energy:      -152.636891  Gnorm:      1.100784  CPU:    2.865
  Cycle:     39 Energy:      -152.722582  Gnorm:      1.010353  CPU:    2.929
  Cycle:     40 Energy:      -152.761553  Gnorm:      0.611349  CPU:    2.993
  Cycle:     41 Energy:      -152.806844  Gnorm:      0.683357  CPU:    3.073
  Cycle:     42 Energy:      -152.850653  Gnorm:      0.584456  CPU:    3.137
  Cycle:     43 Energy:      -152.896023  Gnorm:      0.676417  CPU:    3.217
  Cycle:     44 Energy:      -152.937283  Gnorm:      0.740507  CPU:    3.281
  Cycle:     45 Energy:      -152.987414  Gnorm:      0.729643  CPU:    3.361
  Cycle:     46 Energy:      -153.034596  Gnorm:      0.553218  CPU:    3.441
  Cycle:     47 Energy:      -153.060637  Gnorm:      0.413166  CPU:    3.522
  ** Hessian calculated **
  Cycle:     48 Energy:      -153.458094  Gnorm:      0.306034  CPU:    3.680
  ** Hessian calculated **
  Cycle:     49 Energy:      -153.712586  Gnorm:      0.218287  CPU:    3.823
  Cycle:     50 Energy:      -153.726935  Gnorm:      0.150615  CPU:    3.887
  ** Hessian calculated **
  Cycle:     51 Energy:      -153.732503  Gnorm:      0.127890  CPU:    3.998
  Cycle:     52 Energy:      -153.734472  Gnorm:      0.081868  CPU:    4.062
  Cycle:     53 Energy:      -153.735341  Gnorm:      0.069157  CPU:    4.142
  Cycle:     54 Energy:      -153.735910  Gnorm:      0.049858  CPU:    4.206
  Cycle:     55 Energy:      -153.736239  Gnorm:      0.034583  CPU:    4.271
  Cycle:     56 Energy:      -153.736599  Gnorm:      0.050346  CPU:    4.351
  Cycle:     57 Energy:      -153.737095  Gnorm:      0.071587  CPU:    4.431
  Cycle:     58 Energy:      -153.737737  Gnorm:      0.038274  CPU:    4.510
  Cycle:     59 Energy:      -153.738101  Gnorm:      0.027775  CPU:    4.575
  Cycle:     60 Energy:      -153.738500  Gnorm:      0.047444  CPU:    4.654
  ** Hessian calculated **
  Cycle:     61 Energy:      -153.738701  Gnorm:      0.030257  CPU:    4.769
  Cycle:     62 Energy:      -153.738893  Gnorm:      0.026631  CPU:    4.849
  Cycle:     63 Energy:      -153.739124  Gnorm:      0.037048  CPU:    4.928
  Cycle:     64 Energy:      -153.739330  Gnorm:      0.039607  CPU:    5.008
  Cycle:     65 Energy:      -153.739493  Gnorm:      0.021238  CPU:    5.087
  Cycle:     66 Energy:      -153.739662  Gnorm:      0.028118  CPU:    5.167
  Cycle:     67 Energy:      -153.739771  Gnorm:      0.026979  CPU:    5.231
  Cycle:     68 Energy:      -153.740042  Gnorm:      0.037621  CPU:    5.311
  Cycle:     69 Energy:      -153.740426  Gnorm:      0.058049  CPU:    5.390
  Cycle:     70 Energy:      -153.740905  Gnorm:      0.037196  CPU:    5.470
  ** Hessian calculated **
  Cycle:     71 Energy:      -153.743315  Gnorm:      0.033812  CPU:    5.642
  Cycle:     72 Energy:      -153.745733  Gnorm:      0.030699  CPU:    5.737
  Cycle:     73 Energy:      -153.747279  Gnorm:      0.028153  CPU:    5.832
  ** Hessian calculated **
  Cycle:     74 Energy:      -153.747368  Gnorm:      0.017554  CPU:    5.944
  Cycle:     75 Energy:      -153.747405  Gnorm:      0.013663  CPU:    6.008
  Cycle:     76 Energy:      -153.747441  Gnorm:      0.017851  CPU:    6.088
  Cycle:     77 Energy:      -153.747492  Gnorm:      0.017906  CPU:    6.167
  Cycle:     78 Energy:      -153.747583  Gnorm:      0.024648  CPU:    6.247
  Cycle:     79 Energy:      -153.747665  Gnorm:      0.018323  CPU:    6.326
  Cycle:     80 Energy:      -153.747721  Gnorm:      0.029349  CPU:    6.390
  Cycle:     81 Energy:      -153.747809  Gnorm:      0.023758  CPU:    6.454
  Cycle:     82 Energy:      -153.747885  Gnorm:      0.026302  CPU:    6.518
  Cycle:     83 Energy:      -153.747985  Gnorm:      0.025020  CPU:    6.598
  ** Hessian calculated **
  Cycle:     84 Energy:      -153.748038  Gnorm:      0.016532  CPU:    6.707
  Cycle:     85 Energy:      -153.748080  Gnorm:      0.010791  CPU:    6.786
  Cycle:     86 Energy:      -153.748129  Gnorm:      0.017456  CPU:    6.865
  Cycle:     87 Energy:      -153.748167  Gnorm:      0.018737  CPU:    6.929
  Cycle:     88 Energy:      -153.748233  Gnorm:      0.018526  CPU:    7.009
  Cycle:     89 Energy:      -153.748311  Gnorm:      0.017395  CPU:    7.088
  Cycle:     90 Energy:      -153.748369  Gnorm:      0.019606  CPU:    7.152
  Cycle:     91 Energy:      -153.748441  Gnorm:      0.014042  CPU:    7.231
  Cycle:     92 Energy:      -153.748507  Gnorm:      0.016205  CPU:    7.310
  Cycle:     93 Energy:      -153.748585  Gnorm:      0.023039  CPU:    7.374
  ** Hessian calculated **
  Cycle:     94 Energy:      -153.749048  Gnorm:      0.022340  CPU:    7.545
  Cycle:     95 Energy:      -153.749633  Gnorm:      0.021268  CPU:    7.639
  Cycle:     96 Energy:      -153.750227  Gnorm:      0.018311  CPU:    7.735
  Cycle:     97 Energy:      -153.750725  Gnorm:      0.012925  CPU:    7.829
  Cycle:     98 Energy:      -153.751065  Gnorm:      0.004890  CPU:    7.924
  Cycle:     99 Energy:      -153.751118  Gnorm:      0.000879  CPU:    7.989


  **** Optimisation achieved ****


  Final energy =    -153.75111800 eV      
  Final Gnorm  =       0.00021070

  Components of energy : 

--------------------------------------------------------------------------------
  Interatomic potentials     =          12.31312048 eV    
  Monopole - monopole (real) =         -68.57230115 eV    
  Monopole - monopole (recip)=         -97.49193732 eV    
  Monopole - monopole (total)=        -166.06423848 eV    
--------------------------------------------------------------------------------
  Total lattice energy       =        -153.75111800 eV    
--------------------------------------------------------------------------------
  Total lattice energy       =          -14834.6326 kJ/(mole unit cells)
--------------------------------------------------------------------------------

  Final fractional coordinates of atoms :

--------------------------------------------------------------------------------
   No.  Atomic        x           y          z          Radius
        Label       (Frac)      (Frac)     (Frac)       (Angs) 
--------------------------------------------------------------------------------
     1  Ti    c     0.552594    0.194546    0.696633    0.000000
     2  Ti    c     0.904859    0.567351    0.569489    0.000000
     3  Ti    c     0.295050    0.548314    0.050492    0.000000
     4  Ti    c     0.130566    0.996427    0.498582    0.000000
     5  O     c     0.344889    0.026763    0.028997    0.000000
     6  O     c     0.444446    0.668686    0.670891    0.000000
     7  O     c     0.323345    0.282754    0.784959    0.000000
     8  O     c     0.096745    0.425820    0.427972    0.000000
     9  O     c     0.735563    0.504178    0.006297    0.000000
    10  O     c     0.969090    0.893805    0.895931    0.000000
    11  O     c     0.105276    0.702309    0.204463    0.000000
    12  O     c     0.708146    0.226297    0.228411    0.000000
--------------------------------------------------------------------------------

  Final Cartesian lattice vectors (Angstroms) :

        7.038224    1.367835    0.155278
      -10.195585   13.051325  -12.606501
        6.677061   -8.184364    9.289462


  Final cell parameters and derivatives :

--------------------------------------------------------------------------------
       a            7.171588 Angstrom     dE/de1(xx)    -0.000002 eV/strain
       b           20.813719 Angstrom     dE/de2(yy)     0.001243 eV/strain
       c           14.066309 Angstrom     dE/de3(zz)    -0.001173 eV/strain
       alpha      175.840223 Degrees      dE/de4(yz)     0.000092 eV/strain
       beta        68.334832 Degrees      dE/de5(xz)     0.000336 eV/strain
       gamma      111.978353 Degrees      dE/de6(xy)    -0.000241 eV/strain
--------------------------------------------------------------------------------

  Primitive cell volume =           140.974122 Angs**3

  Density of cell =      3.763697 g/cm**3

  Non-primitive cell volume =           140.974122 Angs**3


  Final internal derivatives :

--------------------------------------------------------------------------------
   No.  Atomic          a             b             c           Radius
        Label          (eV)          (eV)          (eV)        (eV/Angs)
--------------------------------------------------------------------------------
      1 Ti    c       0.000000      0.000000      0.000000      0.000000
      2 Ti    c      -0.001177      0.000366     -0.000463      0.000000
      3 Ti    c       0.000057      0.000587     -0.000694      0.000000
      4 Ti    c       0.002574     -0.003121      0.001671      0.000000
      5 O     c      -0.004213     -0.000457      0.000302      0.000000
      6 O     c      -0.000520     -0.001327      0.001052      0.000000
      7 O     c       0.000684      0.003401     -0.002192      0.000000
      8 O     c       0.000322      0.000751     -0.000659      0.000000
      9 O     c       0.000781      0.000719      0.000101      0.000000
     10 O     c      -0.000173     -0.000205      0.000183      0.000000
     11 O     c      -0.000071     -0.000817      0.000473      0.000000
     12 O     c      -0.000141     -0.000890      0.000783      0.000000
--------------------------------------------------------------------------------
  Maximum abs         0.004213      0.003401      0.002192      0.000000
--------------------------------------------------------------------------------


  Time to end of optimisation =       8.1002 seconds


  Peak dynamic memory used =       1.84 MB 


  Timing analysis for GULP :

--------------------------------------------------------------------------------
  Task / Subroutine                                          Time (Seconds)
--------------------------------------------------------------------------------
  Calculation of reciprocal space energy and derivatives          0.1125
  Calculation of real space energy and derivatives                7.9561
  Calculation and manipulation of Hessian matrix                  0.0009
  Calculation of matrix inversion                                 0.0015
  Global summation overhead                                       0.0006
--------------------------------------------------------------------------------
  Total CPU time                                                  8.1002
--------------------------------------------------------------------------------


  Job Finished at 11:26.10 29th May        2024                               

