********************************************************************************
*                       GENERAL UTILITY LATTICE PROGRAM                        *
*                                 Julian Gale                                  *
*                       Curtin Institute for Computation                       *
*                    School of Molecular and Life Sciences                     *
*                    Curtin University, Western Australia                      *
********************************************************************************
* Version = 6.0.0 * Last modified =  12th July 2021                            *
********************************************************************************
*  optimise     - perform optimisation run                                     *
*  conp         - constant pressure calculation                                *
*  conjugate    - use conjugate gradients minimiser                            *
********************************************************************************

  Job Started  at 11:25.54 29th May        2024                               

  Number of CPUs =     1


  Total number of configurations input =      1

********************************************************************************
*  Input for Configuration =   1                                               *
********************************************************************************

  Formula = Ti4O8                                                       

  Number of irreducible atoms/shells =      12


  Total number atoms/shells =      12

  Dimensionality = 3               :  Bulk   



  Cartesian lattice vectors (Angstroms) :

        4.410476    2.552865   -1.323446
        1.272677    9.649439   -1.279809
       -0.810640   -0.827939    3.688852

  Cell parameters (Angstroms/Degrees):

  a =       5.2651    alpha = 111.2253
  b =       9.8168    beta  = 121.2826
  c =       3.8666    gamma =  51.8317

  Initial cell volume =         134.024851 Angs**3

  Temperature of configuration =   0.00     K 

  Pressure of configuration =         0.000 GPa 

  Fractional coordinates of asymmetric unit :

--------------------------------------------------------------------------------
   No.  Atomic       x           y          z         Charge      Occupancy
        Label      (Frac)      (Frac)     (Frac)        (e)         (Frac)  
--------------------------------------------------------------------------------
      1 Ti    c    0.699073    0.000081    0.268453     2.19600    1.000000    
      2 Ti    c    0.291649 *  0.407499 *  0.268448 *   2.19600    1.000000    
      3 Ti    c    0.291648 *  0.142637 *  0.675867 *   2.19600    1.000000    
      4 Ti    c    0.699071 *  0.550054 *  0.675872 *   2.19600    1.000000    
      5 O     c    0.107522 *  0.367874 *  0.812315 *  -1.09800    1.000000    
      6 O     c    0.068361 *  0.589678 *  0.404898 *  -1.09800    1.000000    
      7 O     c    0.514950 *  0.589670 *  0.131997 *  -1.09800    1.000000    
      8 O     c    0.068368 *  0.775292 *  0.812317 *  -1.09800    1.000000    
      9 O     c    0.514956 *  0.775300 *  0.539430 *  -1.09800    1.000000    
     10 O     c    0.107524 *  0.182261 *  0.404897 *  -1.09800    1.000000    
     11 O     c    0.475776 *  0.367881 *  0.539414 *  -1.09800    1.000000    
     12 O     c    0.475772 *  0.182254 *  0.132005 *  -1.09800    1.000000    
--------------------------------------------------------------------------------



********************************************************************************
*  General input information                                                   *
********************************************************************************

  Species output for all configurations : 

--------------------------------------------------------------------------------
  Species    Type    Atomic    Atomic    Charge       Radii (Angs)     Library
                     Number     Mass       (e)     Cova   Ionic  VDW   Symbol
--------------------------------------------------------------------------------
    Ti       Core       22      47.88   2.196000   1.470  0.000  2.190          
    O        Core        8      16.00  -1.098000   0.730  0.000  1.360          
--------------------------------------------------------------------------------


  Lattice summation method               =    Ewald          (3-D)
                                         =    Parry          (2-D)
                                         =    Saunders et al (1-D)
  Accuracy factor for lattice sums       =   12.000


  Analytic derivatives to be used

  Time limit = Infinity

  Maximum range for interatomic potentials =    100000.000000 Angstroms

  General interatomic potentials :

--------------------------------------------------------------------------------
Atom  Types   Potential      Parameter       Value         Units   Cutoffs(Ang)
  1     2                                                            Min /  Max 
--------------------------------------------------------------------------------
Ti   c Ti   c Buckingham    Buckingham A     31120.100    eV        0.000 15.000
                            Buckingham rho  0.15400000    Ang       
                            Buckingham C     5.2500000    eV*Ang^6  
--------------------------------------------------------------------------------
O    c O    c Buckingham    Buckingham A     11782.700    eV        0.000 15.000
                            Buckingham rho  0.23400000    Ang       
                            Buckingham C     30.220000    eV*Ang^6  
--------------------------------------------------------------------------------
O    c Ti   c Buckingham    Buckingham A     16957.500    eV        0.000 15.000
                            Buckingham rho  0.19400000    Ang       
                            Buckingham C     12.590000    eV*Ang^6  
--------------------------------------------------------------------------------
Ti   c Ti   c Lennard       Lennard-Jones A  1.0000000    eV*Ang^m  0.000 15.000
                            Lennard-Jones B  0.0000000    eV*Ang^n  
                            Exponent m        12          None
                            Exponent n         6          None
--------------------------------------------------------------------------------
O    c O    c Lennard       Lennard-Jones A  1.0000000    eV*Ang^m  0.000 15.000
                            Lennard-Jones B  0.0000000    eV*Ang^n  
                            Exponent m        12          None
                            Exponent n         6          None
--------------------------------------------------------------------------------
O    c Ti   c Lennard       Lennard-Jones A  1.0000000    eV*Ang^m  0.000 15.000
                            Lennard-Jones B  0.0000000    eV*Ang^n  
                            Exponent m        12          None
                            Exponent n         6          None
--------------------------------------------------------------------------------

********************************************************************************
*  Output for configuration   1                                                *
********************************************************************************


  Components of energy : 

--------------------------------------------------------------------------------
  Interatomic potentials     =         237.84574109 eV    
  Monopole - monopole (real) =         -77.01319148 eV    
  Monopole - monopole (recip)=         -92.76764617 eV    
  Monopole - monopole (total)=        -169.78083765 eV    
--------------------------------------------------------------------------------
  Total lattice energy       =          68.06490344 eV    
--------------------------------------------------------------------------------
  Total lattice energy       =            6567.2227 kJ/(mole unit cells)
--------------------------------------------------------------------------------


  Number of variables =       39

  Maximum number of calculations  =          1000
  Maximum Hessian update interval =            10
  Maximum step size               =   1.000000000
  Maximum parameter tolerance     =   0.000010000
  Maximum function  tolerance     =   0.000010000
  Maximum gradient  tolerance     =   0.001000000
  Maximum gradient  component     =   0.010000000

  Symmetry not applied to optimisation

  Cell parameters to be optimised using strains

  Conjugate gradient optimiser to be used

  Lower half triangular hessian to be used

  Minimiser to switch to BFGS with exact hessian
  When gradient norm is less than     0.500000

  Start of bulk optimisation :

  Cycle:      0 Energy:        68.064903  Gnorm:     80.938161  CPU:    0.034
  Cycle:      1 Energy:      -100.835274  Gnorm:      9.139459  CPU:    0.115
  Cycle:      2 Energy:      -123.193106  Gnorm:      5.413562  CPU:    0.184
  Cycle:      3 Energy:      -130.465796  Gnorm:      4.130071  CPU:    0.226
  Cycle:      4 Energy:      -133.563414  Gnorm:      4.256993  CPU:    0.281
  Cycle:      5 Energy:      -135.575269  Gnorm:      2.270255  CPU:    0.323
  Cycle:      6 Energy:      -139.325515  Gnorm:      3.379038  CPU:    0.374
  Cycle:      7 Energy:      -144.152044  Gnorm:      3.046901  CPU:    0.428
  Cycle:      8 Energy:      -147.099072  Gnorm:      1.390443  CPU:    0.469
  Cycle:      9 Energy:      -147.842303  Gnorm:      3.815362  CPU:    0.510
  Cycle:     10 Energy:      -148.966270  Gnorm:      0.959532  CPU:    0.565
  Cycle:     11 Energy:      -149.889630  Gnorm:      1.327168  CPU:    0.617
  Cycle:     12 Energy:      -150.906780  Gnorm:      1.545410  CPU:    0.659
  Cycle:     13 Energy:      -151.641958  Gnorm:      0.923880  CPU:    0.716
  Cycle:     14 Energy:      -151.982930  Gnorm:      0.907724  CPU:    0.771
  Cycle:     15 Energy:      -152.716779  Gnorm:      0.830249  CPU:    0.825
  Cycle:     16 Energy:      -153.442323  Gnorm:      0.774591  CPU:    0.878
  Cycle:     17 Energy:      -153.818522  Gnorm:      0.533091  CPU:    0.920
  Cycle:     18 Energy:      -154.009209  Gnorm:      0.667830  CPU:    0.976
  Cycle:     19 Energy:      -154.240136  Gnorm:      0.467292  CPU:    1.018
  ** Hessian calculated **
  Cycle:     20 Energy:      -154.469081  Gnorm:      0.377064  CPU:    1.127
  ** Hessian calculated **
  Cycle:     21 Energy:      -154.584831  Gnorm:      0.360650  CPU:    1.236
  ** Hessian calculated **
  Cycle:     22 Energy:      -154.760873  Gnorm:      0.341735  CPU:    1.334
  Cycle:     23 Energy:      -154.923950  Gnorm:      0.535613  CPU:    1.385
  Cycle:     24 Energy:      -155.397523  Gnorm:      0.820003  CPU:    1.440
  Cycle:     25 Energy:      -155.850110  Gnorm:      0.576917  CPU:    1.481
  Cycle:     26 Energy:      -156.088785  Gnorm:      0.337429  CPU:    1.522
  Cycle:     27 Energy:      -156.168317  Gnorm:      0.382638  CPU:    1.560
  Cycle:     28 Energy:      -156.339238  Gnorm:      0.386108  CPU:    1.599
  Cycle:     29 Energy:      -156.485704  Gnorm:      0.276884  CPU:    1.638
  Cycle:     30 Energy:      -156.602484  Gnorm:      0.202317  CPU:    1.671
  Cycle:     31 Energy:      -156.675597  Gnorm:      0.185359  CPU:    1.714
  ** Hessian calculated **
  Cycle:     32 Energy:      -156.722633  Gnorm:      0.149806  CPU:    1.792
  Cycle:     33 Energy:      -156.775462  Gnorm:      0.191118  CPU:    1.834
  Cycle:     34 Energy:      -156.817746  Gnorm:      0.147676  CPU:    1.866
  Cycle:     35 Energy:      -156.858743  Gnorm:      0.148352  CPU:    1.899
  Cycle:     36 Energy:      -156.888550  Gnorm:      0.158036  CPU:    1.925
  Cycle:     37 Energy:      -156.921331  Gnorm:      0.108732  CPU:    1.961
  Cycle:     38 Energy:      -156.941667  Gnorm:      0.091727  CPU:    1.993
  Cycle:     39 Energy:      -156.961690  Gnorm:      0.094183  CPU:    2.025
  Cycle:     40 Energy:      -156.976263  Gnorm:      0.075855  CPU:    2.061
  Cycle:     41 Energy:      -156.986294  Gnorm:      0.094363  CPU:    2.087
  ** Hessian calculated **
  Cycle:     42 Energy:      -157.032267  Gnorm:      0.033704  CPU:    2.167
  Cycle:     43 Energy:      -157.039709  Gnorm:      0.007413  CPU:    2.197
  Cycle:     44 Energy:      -157.039986  Gnorm:      0.002917  CPU:    2.223
  Cycle:     45 Energy:      -157.040026  Gnorm:      0.000763  CPU:    2.250


  **** Optimisation achieved ****


  Final energy =    -157.04003191 eV      
  Final Gnorm  =       0.00069800

  Components of energy : 

--------------------------------------------------------------------------------
  Interatomic potentials     =          11.77629092 eV    
  Monopole - monopole (real) =         -64.22764409 eV    
  Monopole - monopole (recip)=        -104.58867874 eV    
  Monopole - monopole (total)=        -168.81632283 eV    
--------------------------------------------------------------------------------
  Total lattice energy       =        -157.04003191 eV    
--------------------------------------------------------------------------------
  Total lattice energy       =          -15151.9625 kJ/(mole unit cells)
--------------------------------------------------------------------------------

  Final fractional coordinates of atoms :

--------------------------------------------------------------------------------
   No.  Atomic        x           y          z          Radius
        Label       (Frac)      (Frac)     (Frac)       (Angs) 
--------------------------------------------------------------------------------
     1  Ti    c     0.699073    0.000081    0.268453    0.000000
     2  Ti    c     0.280427    0.500100    0.102019    0.000000
     3  Ti    c     0.010833    0.219637    0.754363    0.000000
     4  Ti    c     0.529562    0.719662    0.616138    0.000000
     5  O     c     0.981459    0.472993    0.792079    0.000000
     6  O     c     0.855642    0.723845    0.301970    0.000000
     7  O     c     0.369982    0.706518    0.097207    0.000000
     8  O     c     0.052193    0.972999    0.578415    0.000000
     9  O     c     0.538358    0.972425    0.777771    0.000000
    10  O     c     0.196694    0.206489    0.273284    0.000000
    11  O     c     0.496389    0.472457    0.592679    0.000000
    12  O     c     0.676328    0.223852    0.068484    0.000000
--------------------------------------------------------------------------------

  Final Cartesian lattice vectors (Angstroms) :

        4.351604    2.168595    0.041755
        1.407057    8.070695    0.364839
       -0.062660   -0.229998    3.627917


  Final cell parameters and derivatives :

--------------------------------------------------------------------------------
       a            4.862201 Angstrom     dE/de1(xx)     0.000814 eV/strain
       b            8.200551 Angstrom     dE/de2(yy)    -0.006905 eV/strain
       c            3.635741 Angstrom     dE/de3(zz)    -0.002553 eV/strain
       alpha       91.193086 Degrees      dE/de4(yz)    -0.005289 eV/strain
       beta        92.009789 Degrees      dE/de5(xz)     0.001350 eV/strain
       gamma       53.637436 Degrees      dE/de6(xy)     0.006660 eV/strain
--------------------------------------------------------------------------------

  Primitive cell volume =           116.667332 Angs**3

  Density of cell =      4.547836 g/cm**3

  Non-primitive cell volume =           116.667332 Angs**3


  Final internal derivatives :

--------------------------------------------------------------------------------
   No.  Atomic          a             b             c           Radius
        Label          (eV)          (eV)          (eV)        (eV/Angs)
--------------------------------------------------------------------------------
      1 Ti    c       0.000000      0.000000      0.000000      0.000000
      2 Ti    c      -0.007982      0.004432     -0.000872      0.000000
      3 Ti    c       0.003985     -0.003772     -0.002096      0.000000
      4 Ti    c       0.001298      0.009713      0.002052      0.000000
      5 O     c       0.005250      0.008140      0.002348      0.000000
      6 O     c      -0.000745     -0.004319      0.002794      0.000000
      7 O     c      -0.001044     -0.007233     -0.000166      0.000000
      8 O     c      -0.005254     -0.002234     -0.002501      0.000000
      9 O     c      -0.005909     -0.005191     -0.008684      0.000000
     10 O     c       0.003698     -0.000981      0.002104      0.000000
     11 O     c      -0.000790      0.001610      0.000461      0.000000
     12 O     c       0.000064      0.000047     -0.003838      0.000000
--------------------------------------------------------------------------------
  Maximum abs         0.007982      0.009713      0.008684      0.000000
--------------------------------------------------------------------------------


  Time to end of optimisation =       2.2761 seconds


  Peak dynamic memory used =       1.84 MB 


  Timing analysis for GULP :

--------------------------------------------------------------------------------
  Task / Subroutine                                          Time (Seconds)
--------------------------------------------------------------------------------
  Calculation of reciprocal space energy and derivatives          0.0668
  Calculation of real space energy and derivatives                2.1889
  Calculation and manipulation of Hessian matrix                  0.0007
  Calculation of matrix inversion                                 0.0013
  Global summation overhead                                       0.0003
--------------------------------------------------------------------------------
  Total CPU time                                                  2.2762
--------------------------------------------------------------------------------


  Job Finished at 11:25.56 29th May        2024                               

