********************************************************************************
*                       GENERAL UTILITY LATTICE PROGRAM                        *
*                                 Julian Gale                                  *
*                       Curtin Institute for Computation                       *
*                    School of Molecular and Life Sciences                     *
*                    Curtin University, Western Australia                      *
********************************************************************************
* Version = 6.0.0 * Last modified =  12th July 2021                            *
********************************************************************************
*  optimise     - perform optimisation run                                     *
*  conp         - constant pressure calculation                                *
*  conjugate    - use conjugate gradients minimiser                            *
********************************************************************************

  Job Started  at 11:25.59 29th May        2024                               

  Number of CPUs =     1


  Total number of configurations input =      1

********************************************************************************
*  Input for Configuration =   1                                               *
********************************************************************************

  Formula = Ti4O8                                                       

  Number of irreducible atoms/shells =      12


  Total number atoms/shells =      12

  Dimensionality = 3               :  Bulk   



  Cartesian lattice vectors (Angstroms) :

        3.714522    0.997757   -3.860882
        0.488759    7.379711   -1.269123
       -0.273432   -0.968555    5.356009

  Cell parameters (Angstroms/Degrees):

  a =       5.4497    alpha = 110.1371
  b =       7.5040    beta  = 139.7298
  c =       5.4497    gamma =  69.8631

  Initial cell volume =         134.024851 Angs**3

  Temperature of configuration =   0.00     K 

  Pressure of configuration =         0.000 GPa 

  Fractional coordinates of asymmetric unit :

--------------------------------------------------------------------------------
   No.  Atomic       x           y          z         Charge      Occupancy
        Label      (Frac)      (Frac)     (Frac)        (e)         (Frac)  
--------------------------------------------------------------------------------
      1 Ti    c    0.379188    0.653430    0.589100     2.19600    1.000000    
      2 Ti    c    0.127934 *  0.025327 *  0.840324 *   2.19600    1.000000    
      3 Ti    c    0.923820 *  0.632353 *  0.044459 *   2.19600    1.000000    
      4 Ti    c    0.170100 *  0.255484 *  0.798171 *   2.19600    1.000000    
      5 O     c    0.714730 *  0.234405 *  0.253530 *  -1.09800    1.000000    
      6 O     c    0.379187 *  0.150955 *  0.589091 *  -1.09800    1.000000    
      7 O     c    0.923822 *  0.129877 *  0.044455 *  -1.09800    1.000000    
      8 O     c    0.714742 *  0.736887 *  0.253553 *  -1.09800    1.000000    
      9 O     c    0.965985 *  0.862515 *  0.002321 *  -1.09800    1.000000    
     10 O     c    0.127935 *  0.527805 *  0.840324 *  -1.09800    1.000000    
     11 O     c    0.170103 *  0.757965 *  0.798176 *  -1.09800    1.000000    
     12 O     c    0.965976 *  0.360036 *  0.002299 *  -1.09800    1.000000    
--------------------------------------------------------------------------------



********************************************************************************
*  General input information                                                   *
********************************************************************************

  Species output for all configurations : 

--------------------------------------------------------------------------------
  Species    Type    Atomic    Atomic    Charge       Radii (Angs)     Library
                     Number     Mass       (e)     Cova   Ionic  VDW   Symbol
--------------------------------------------------------------------------------
    Ti       Core       22      47.88   2.196000   1.470  0.000  2.190          
    O        Core        8      16.00  -1.098000   0.730  0.000  1.360          
--------------------------------------------------------------------------------


  Lattice summation method               =    Ewald          (3-D)
                                         =    Parry          (2-D)
                                         =    Saunders et al (1-D)
  Accuracy factor for lattice sums       =   12.000


  Analytic derivatives to be used

  Time limit = Infinity

  Maximum range for interatomic potentials =    100000.000000 Angstroms

  General interatomic potentials :

--------------------------------------------------------------------------------
Atom  Types   Potential      Parameter       Value         Units   Cutoffs(Ang)
  1     2                                                            Min /  Max 
--------------------------------------------------------------------------------
Ti   c Ti   c Buckingham    Buckingham A     31120.100    eV        0.000 15.000
                            Buckingham rho  0.15400000    Ang       
                            Buckingham C     5.2500000    eV*Ang^6  
--------------------------------------------------------------------------------
O    c O    c Buckingham    Buckingham A     11782.700    eV        0.000 15.000
                            Buckingham rho  0.23400000    Ang       
                            Buckingham C     30.220000    eV*Ang^6  
--------------------------------------------------------------------------------
O    c Ti   c Buckingham    Buckingham A     16957.500    eV        0.000 15.000
                            Buckingham rho  0.19400000    Ang       
                            Buckingham C     12.590000    eV*Ang^6  
--------------------------------------------------------------------------------
Ti   c Ti   c Lennard       Lennard-Jones A  1.0000000    eV*Ang^m  0.000 15.000
                            Lennard-Jones B  0.0000000    eV*Ang^n  
                            Exponent m        12          None
                            Exponent n         6          None
--------------------------------------------------------------------------------
O    c O    c Lennard       Lennard-Jones A  1.0000000    eV*Ang^m  0.000 15.000
                            Lennard-Jones B  0.0000000    eV*Ang^n  
                            Exponent m        12          None
                            Exponent n         6          None
--------------------------------------------------------------------------------
O    c Ti   c Lennard       Lennard-Jones A  1.0000000    eV*Ang^m  0.000 15.000
                            Lennard-Jones B  0.0000000    eV*Ang^n  
                            Exponent m        12          None
                            Exponent n         6          None
--------------------------------------------------------------------------------

********************************************************************************
*  Output for configuration   1                                                *
********************************************************************************


  Components of energy : 

--------------------------------------------------------------------------------
  Interatomic potentials     =          28.44790182 eV    
  Monopole - monopole (real) =         -16.68225440 eV    
  Monopole - monopole (recip)=         -89.58489391 eV    
  Monopole - monopole (total)=        -106.26714831 eV    
--------------------------------------------------------------------------------
  Total lattice energy       =         -77.81924649 eV    
--------------------------------------------------------------------------------
  Total lattice energy       =           -7508.3677 kJ/(mole unit cells)
--------------------------------------------------------------------------------


  Number of variables =       39

  Maximum number of calculations  =          1000
  Maximum Hessian update interval =            10
  Maximum step size               =   1.000000000
  Maximum parameter tolerance     =   0.000010000
  Maximum function  tolerance     =   0.000010000
  Maximum gradient  tolerance     =   0.001000000
  Maximum gradient  component     =   0.010000000

  Symmetry not applied to optimisation

  Cell parameters to be optimised using strains

  Conjugate gradient optimiser to be used

  Lower half triangular hessian to be used

  Minimiser to switch to BFGS with exact hessian
  When gradient norm is less than     0.500000

  Start of bulk optimisation :

  Cycle:      0 Energy:       -77.819246  Gnorm:     13.016692  CPU:    0.033
  Cycle:      1 Energy:      -103.494680  Gnorm:      6.602916  CPU:    0.086
  Cycle:      2 Energy:      -111.203732  Gnorm:      4.554716  CPU:    0.139
  Cycle:      3 Energy:      -117.552788  Gnorm:      4.525858  CPU:    0.193
  Cycle:      4 Energy:      -122.953359  Gnorm:      4.782101  CPU:    0.240
  Cycle:      5 Energy:      -126.444257  Gnorm:      3.385460  CPU:    0.276
  Cycle:      6 Energy:      -130.032484  Gnorm:      1.906375  CPU:    0.324
  Cycle:      7 Energy:      -131.015547  Gnorm:      2.360796  CPU:    0.359
  Cycle:      8 Energy:      -131.837424  Gnorm:      2.749422  CPU:    0.398
  Cycle:      9 Energy:      -133.206857  Gnorm:      1.602431  CPU:    0.434
  Cycle:     10 Energy:      -133.682919  Gnorm:      1.325220  CPU:    0.478
  Cycle:     11 Energy:      -134.548830  Gnorm:      1.644740  CPU:    0.526
  Cycle:     12 Energy:      -135.373526  Gnorm:      1.949306  CPU:    0.562
  Cycle:     13 Energy:      -138.037997  Gnorm:      1.704211  CPU:    0.608
  Cycle:     14 Energy:      -138.985848  Gnorm:      1.627301  CPU:    0.649
  Cycle:     15 Energy:      -139.538059  Gnorm:      1.060104  CPU:    0.688
  Cycle:     16 Energy:      -139.968379  Gnorm:      1.424636  CPU:    0.736
  Cycle:     17 Energy:      -140.887962  Gnorm:      2.311359  CPU:    0.788
  Cycle:     18 Energy:      -142.568944  Gnorm:      4.425108  CPU:    0.827
  Cycle:     19 Energy:      -145.646504  Gnorm:      3.360849  CPU:    0.890
  Cycle:     20 Energy:      -147.045898  Gnorm:      2.168652  CPU:    0.942
  Cycle:     21 Energy:      -147.748097  Gnorm:      1.642363  CPU:    0.993
  Cycle:     22 Energy:      -149.038523  Gnorm:      1.898403  CPU:    1.046
  Cycle:     23 Energy:      -150.097338  Gnorm:      1.671802  CPU:    1.089
  Cycle:     24 Energy:      -151.335760  Gnorm:      2.062526  CPU:    1.141
  Cycle:     25 Energy:      -152.292289  Gnorm:      2.016500  CPU:    1.187
  Cycle:     26 Energy:      -153.291712  Gnorm:      1.196259  CPU:    1.240
  Cycle:     27 Energy:      -153.660635  Gnorm:      0.643081  CPU:    1.297
  Cycle:     28 Energy:      -153.841331  Gnorm:      0.701177  CPU:    1.351
  Cycle:     29 Energy:      -154.005422  Gnorm:      0.559198  CPU:    1.398
  Cycle:     30 Energy:      -154.079161  Gnorm:      0.380682  CPU:    1.442
  ** Hessian calculated **
  Cycle:     31 Energy:      -154.408362  Gnorm:      0.309768  CPU:    1.545
  ** Hessian calculated **
  Cycle:     32 Energy:      -154.647034  Gnorm:      0.226241  CPU:    1.646
  Cycle:     33 Energy:      -154.709171  Gnorm:      0.129016  CPU:    1.699
  Cycle:     34 Energy:      -155.036673  Gnorm:      0.678761  CPU:    1.782
  Cycle:     35 Energy:      -155.053748  Gnorm:      0.737850  CPU:    1.834
  ** Hessian calculated **
  Cycle:     36 Energy:      -155.416501  Gnorm:      0.599301  CPU:    1.914
  Cycle:     37 Energy:      -155.632204  Gnorm:      0.525946  CPU:    1.967
  Cycle:     38 Energy:      -156.060018  Gnorm:      0.747114  CPU:    2.020
  Cycle:     39 Energy:      -156.896969  Gnorm:      0.764501  CPU:    2.093
  Cycle:     40 Energy:      -157.122818  Gnorm:      0.720750  CPU:    2.147
  Cycle:     41 Energy:      -157.696349  Gnorm:      0.435653  CPU:    2.201
  Cycle:     42 Energy:      -157.843845  Gnorm:      0.305717  CPU:    2.245
  Cycle:     43 Energy:      -157.925036  Gnorm:      0.203812  CPU:    2.289
  Cycle:     44 Energy:      -157.957557  Gnorm:      0.109164  CPU:    2.333
  Cycle:     45 Energy:      -157.967429  Gnorm:      0.070854  CPU:    2.377
  ** Hessian calculated **
  Cycle:     46 Energy:      -157.984144  Gnorm:      0.014811  CPU:    2.484
  Cycle:     47 Energy:      -157.984310  Gnorm:      0.001223  CPU:    2.528


  **** Optimisation achieved ****


  Final energy =    -157.98431800 eV      
  Final Gnorm  =       0.00019694

  Components of energy : 

--------------------------------------------------------------------------------
  Interatomic potentials     =          12.75870862 eV    
  Monopole - monopole (real) =         -71.50976621 eV    
  Monopole - monopole (recip)=         -99.23326042 eV    
  Monopole - monopole (total)=        -170.74302663 eV    
--------------------------------------------------------------------------------
  Total lattice energy       =        -157.98431800 eV    
--------------------------------------------------------------------------------
  Total lattice energy       =          -15243.0717 kJ/(mole unit cells)
--------------------------------------------------------------------------------

  Final fractional coordinates of atoms :

--------------------------------------------------------------------------------
   No.  Atomic        x           y          z          Radius
        Label       (Frac)      (Frac)     (Frac)       (Angs) 
--------------------------------------------------------------------------------
     1  Ti    c     0.379188    0.653430    0.589100    0.000000
     2  Ti    c     0.129196    0.028430    0.839108    0.000000
     3  Ti    c     0.129212    0.528428    0.839117    0.000000
     4  Ti    c     0.379177    0.153431    0.589091    0.000000
     5  O     c     0.587257    0.549403    0.381060    0.000000
     6  O     c     0.587248    0.049402    0.381051    0.000000
     7  O     c     0.921133    0.132457    0.047146    0.000000
     8  O     c     0.921144    0.632454    0.047153    0.000000
     9  O     c     0.171158    0.757455    0.797170    0.000000
    10  O     c     0.337230    0.424401    0.631030    0.000000
    11  O     c     0.337235    0.924403    0.631038    0.000000
    12  O     c     0.171157    0.257456    0.797170    0.000000
--------------------------------------------------------------------------------

  Final Cartesian lattice vectors (Angstroms) :

        3.729219    1.037494   -3.874322
        0.473144    7.425848   -1.225707
       -0.270656   -1.009964    5.376005


  Final cell parameters and derivatives :

--------------------------------------------------------------------------------
       a            5.476663 Angstrom     dE/de1(xx)     0.000452 eV/strain
       b            7.541183 Angstrom     dE/de2(yy)    -0.001764 eV/strain
       c            5.476743 Angstrom     dE/de3(zz)    -0.000217 eV/strain
       alpha      110.135123 Degrees      dE/de4(yz)     0.000078 eV/strain
       beta       139.729126 Degrees      dE/de5(xz)     0.000543 eV/strain
       gamma       69.864257 Degrees      dE/de6(xy)     0.000358 eV/strain
--------------------------------------------------------------------------------

  Primitive cell volume =           136.028898 Angs**3

  Density of cell =      3.900523 g/cm**3

  Non-primitive cell volume =           136.028898 Angs**3


  Final internal derivatives :

--------------------------------------------------------------------------------
   No.  Atomic          a             b             c           Radius
        Label          (eV)          (eV)          (eV)        (eV/Angs)
--------------------------------------------------------------------------------
      1 Ti    c       0.000000      0.000000      0.000000      0.000000
      2 Ti    c      -0.000862     -0.000786      0.000357      0.000000
      3 Ti    c       0.002403     -0.001518     -0.001565      0.000000
      4 Ti    c      -0.003270      0.001970      0.002683      0.000000
      5 O     c      -0.000663     -0.000072      0.000037      0.000000
      6 O     c       0.000755     -0.000259     -0.001081      0.000000
      7 O     c       0.001216      0.000676     -0.000466      0.000000
      8 O     c       0.001259      0.000053     -0.000440      0.000000
      9 O     c       0.000515      0.001637     -0.000213      0.000000
     10 O     c       0.000504     -0.002319     -0.001490      0.000000
     11 O     c       0.000760     -0.000999     -0.000814      0.000000
     12 O     c       0.000552      0.001359      0.000002      0.000000
--------------------------------------------------------------------------------
  Maximum abs         0.003270      0.002319      0.002683      0.000000
--------------------------------------------------------------------------------


  Time to end of optimisation =       2.5721 seconds


  Peak dynamic memory used =       1.84 MB 


  Timing analysis for GULP :

--------------------------------------------------------------------------------
  Task / Subroutine                                          Time (Seconds)
--------------------------------------------------------------------------------
  Calculation of reciprocal space energy and derivatives          0.0666
  Calculation of real space energy and derivatives                2.4865
  Calculation and manipulation of Hessian matrix                  0.0004
  Calculation of matrix inversion                                 0.0008
  Global summation overhead                                       0.0003
--------------------------------------------------------------------------------
  Total CPU time                                                  2.5722
--------------------------------------------------------------------------------


  Job Finished at 11:26.02 29th May        2024                               

