********************************************************************************
*                       GENERAL UTILITY LATTICE PROGRAM                        *
*                                 Julian Gale                                  *
*                       Curtin Institute for Computation                       *
*                    School of Molecular and Life Sciences                     *
*                    Curtin University, Western Australia                      *
********************************************************************************
* Version = 6.0.0 * Last modified =  12th July 2021                            *
********************************************************************************
*  optimise     - perform optimisation run                                     *
*  conp         - constant pressure calculation                                *
*  conjugate    - use conjugate gradients minimiser                            *
********************************************************************************

  Job Started  at 11:26.58 29th May        2024                               

  Number of CPUs =     1


  Total number of configurations input =      1

********************************************************************************
*  Input for Configuration =   1                                               *
********************************************************************************

  Formula = Ti4O8                                                       

  Number of irreducible atoms/shells =      12


  Total number atoms/shells =      12

  Dimensionality = 3               :  Bulk   



  Cartesian lattice vectors (Angstroms) :

        7.355084    1.675996    1.643944
        1.569836    6.842530   -0.243097
        0.586650    0.008623    2.952538

  Cell parameters (Angstroms/Degrees):

  a =       7.7207    alpha =  89.2896
  b =       7.0245    beta  =  66.7265
  c =       3.0103    gamma =  65.3557

  Initial cell volume =         134.024851 Angs**3

  Temperature of configuration =   0.00     K 

  Pressure of configuration =         0.000 GPa 

  Fractional coordinates of asymmetric unit :

--------------------------------------------------------------------------------
   No.  Atomic       x           y          z         Charge      Occupancy
        Label      (Frac)      (Frac)     (Frac)        (e)         (Frac)  
--------------------------------------------------------------------------------
      1 Ti    c    0.404788    0.205532    0.845786     2.19600    1.000000    
      2 Ti    c    0.115103 *  0.205530 *  0.845787 *   2.19600    1.000000    
      3 Ti    c    0.115105 *  0.915843 *  0.135470 *   2.19600    1.000000    
      4 Ti    c    0.404791 *  0.915846 *  0.135470 *   2.19600    1.000000    
      5 O     c    0.684249 *  0.915844 *  0.566328 *  -1.09800    1.000000    
      6 O     c    0.404788 *  0.484990 *  0.135474 *  -1.09800    1.000000    
      7 O     c    0.115105 *  0.636385 *  0.845785 *  -1.09800    1.000000    
      8 O     c    0.835644 *  0.205530 *  0.414932 *  -1.09800    1.000000    
      9 O     c    0.404790 *  0.346701 *  0.135468 *  -1.09800    1.000000    
     10 O     c    0.394561 *  0.205530 *  0.276644 *  -1.09800    1.000000    
     11 O     c    0.125331 *  0.915844 *  0.125242 *  -1.09800    1.000000    
     12 O     c    0.115105 *  0.195303 *  0.845785 *  -1.09800    1.000000    
--------------------------------------------------------------------------------



********************************************************************************
*  General input information                                                   *
********************************************************************************

  Species output for all configurations : 

--------------------------------------------------------------------------------
  Species    Type    Atomic    Atomic    Charge       Radii (Angs)     Library
                     Number     Mass       (e)     Cova   Ionic  VDW   Symbol
--------------------------------------------------------------------------------
    Ti       Core       22      47.88   2.196000   1.470  0.000  2.190          
    O        Core        8      16.00  -1.098000   0.730  0.000  1.360          
--------------------------------------------------------------------------------


  Lattice summation method               =    Ewald          (3-D)
                                         =    Parry          (2-D)
                                         =    Saunders et al (1-D)
  Accuracy factor for lattice sums       =   12.000


  Analytic derivatives to be used

  Time limit = Infinity

  Maximum range for interatomic potentials =    100000.000000 Angstroms

  General interatomic potentials :

--------------------------------------------------------------------------------
Atom  Types   Potential      Parameter       Value         Units   Cutoffs(Ang)
  1     2                                                            Min /  Max 
--------------------------------------------------------------------------------
Ti   c Ti   c Buckingham    Buckingham A     31120.100    eV        0.000 15.000
                            Buckingham rho  0.15400000    Ang       
                            Buckingham C     5.2500000    eV*Ang^6  
--------------------------------------------------------------------------------
O    c O    c Buckingham    Buckingham A     11782.700    eV        0.000 15.000
                            Buckingham rho  0.23400000    Ang       
                            Buckingham C     30.220000    eV*Ang^6  
--------------------------------------------------------------------------------
O    c Ti   c Buckingham    Buckingham A     16957.500    eV        0.000 15.000
                            Buckingham rho  0.19400000    Ang       
                            Buckingham C     12.590000    eV*Ang^6  
--------------------------------------------------------------------------------
Ti   c Ti   c Lennard       Lennard-Jones A  1.0000000    eV*Ang^m  0.000 15.000
                            Lennard-Jones B  0.0000000    eV*Ang^n  
                            Exponent m        12          None
                            Exponent n         6          None
--------------------------------------------------------------------------------
O    c O    c Lennard       Lennard-Jones A  1.0000000    eV*Ang^m  0.000 15.000
                            Lennard-Jones B  0.0000000    eV*Ang^n  
                            Exponent m        12          None
                            Exponent n         6          None
--------------------------------------------------------------------------------
O    c Ti   c Lennard       Lennard-Jones A  1.0000000    eV*Ang^m  0.000 15.000
                            Lennard-Jones B  0.0000000    eV*Ang^n  
                            Exponent m        12          None
                            Exponent n         6          None
--------------------------------------------------------------------------------

********************************************************************************
*  Output for configuration   1                                                *
********************************************************************************


  Components of energy : 

--------------------------------------------------------------------------------
  Interatomic potentials     = ******************** eV    
  Monopole - monopole (real) =        -935.96433234 eV    
  Monopole - monopole (recip)=         -79.26714600 eV    
  Monopole - monopole (total)=       -1015.23147834 eV    
--------------------------------------------------------------------------------
  Total lattice energy       = ******************** eV    
--------------------------------------------------------------------------------
  Total lattice energy       = ******************** kJ/(mole unit cells)
--------------------------------------------------------------------------------


  Number of variables =       39

  Maximum number of calculations  =          1000
  Maximum Hessian update interval =            10
  Maximum step size               =   1.000000000
  Maximum parameter tolerance     =   0.000010000
  Maximum function  tolerance     =   0.000010000
  Maximum gradient  tolerance     =   0.001000000
  Maximum gradient  component     =   0.010000000

  Symmetry not applied to optimisation

  Cell parameters to be optimised using strains

  Conjugate gradient optimiser to be used

  Lower half triangular hessian to be used

  Minimiser to switch to BFGS with exact hessian
  When gradient norm is less than     0.500000

  Start of bulk optimisation :

  Cycle:      0 Energy:*****************  Gnorm:**************  CPU:    0.026
  Cycle:      1 Energy:       187.259861  Gnorm:    150.341029  CPU:    0.093
  Cycle:      2 Energy:       -15.864768  Gnorm:     72.867591  CPU:    0.137
  Cycle:      3 Energy:       -84.855127  Gnorm:     14.213842  CPU:    0.174
  Cycle:      4 Energy:      -106.559733  Gnorm:     12.262502  CPU:    0.218
  Cycle:      5 Energy:      -115.415058  Gnorm:     11.441436  CPU:    0.246
  Cycle:      6 Energy:      -121.941900  Gnorm:      4.079795  CPU:    0.280
  Cycle:      7 Energy:      -128.110637  Gnorm:      4.071544  CPU:    0.314
  Cycle:      8 Energy:      -133.243589  Gnorm:      4.698917  CPU:    0.346
  Cycle:      9 Energy:      -136.673810  Gnorm:      2.127025  CPU:    0.372
  Cycle:     10 Energy:      -137.623153  Gnorm:      1.826145  CPU:    0.404
  Cycle:     11 Energy:      -138.833813  Gnorm:      1.978576  CPU:    0.435
  Cycle:     12 Energy:      -141.039395  Gnorm:      2.299397  CPU:    0.467
  Cycle:     13 Energy:      -142.705531  Gnorm:      1.821045  CPU:    0.493
  Cycle:     14 Energy:      -144.025378  Gnorm:      1.087632  CPU:    0.525
  Cycle:     15 Energy:      -144.413148  Gnorm:      0.649136  CPU:    0.552
  Cycle:     16 Energy:      -145.071472  Gnorm:      0.877497  CPU:    0.585
  Cycle:     17 Energy:      -145.821031  Gnorm:      1.238247  CPU:    0.619
  Cycle:     18 Energy:      -146.836540  Gnorm:      1.449564  CPU:    0.647
  Cycle:     19 Energy:      -147.200528  Gnorm:      1.315366  CPU:    0.683
  Cycle:     20 Energy:      -147.819761  Gnorm:      0.764212  CPU:    0.718
  Cycle:     21 Energy:      -148.488276  Gnorm:      0.820453  CPU:    0.753
  Cycle:     22 Energy:      -149.081863  Gnorm:      0.731598  CPU:    0.781
  Cycle:     23 Energy:      -150.160938  Gnorm:      1.343425  CPU:    0.816
  Cycle:     24 Energy:      -150.430665  Gnorm:      1.145618  CPU:    0.851
  Cycle:     25 Energy:      -151.072979  Gnorm:      0.901820  CPU:    0.886
  Cycle:     26 Energy:      -151.528189  Gnorm:      0.966506  CPU:    0.920
  Cycle:     27 Energy:      -151.906446  Gnorm:      0.680894  CPU:    0.949
  Cycle:     28 Energy:      -152.172830  Gnorm:      0.511992  CPU:    0.984
  Cycle:     29 Energy:      -152.352391  Gnorm:      0.379544  CPU:    1.019
  ** Hessian calculated **
  Cycle:     30 Energy:      -152.671586  Gnorm:      0.265090  CPU:    1.097
  ** Hessian calculated **
  Cycle:     31 Energy:      -152.750100  Gnorm:      0.224314  CPU:    1.163
  Cycle:     32 Energy:      -152.809086  Gnorm:      0.275167  CPU:    1.199
  Cycle:     33 Energy:      -152.889264  Gnorm:      0.271519  CPU:    1.235
  Cycle:     34 Energy:      -153.043562  Gnorm:      0.332064  CPU:    1.275
  Cycle:     35 Energy:      -153.199586  Gnorm:      0.390147  CPU:    1.305
  Cycle:     36 Energy:      -153.423793  Gnorm:      0.316482  CPU:    1.334
  Cycle:     37 Energy:      -153.608268  Gnorm:      0.409003  CPU:    1.375
  Cycle:     38 Energy:      -153.732778  Gnorm:      0.301633  CPU:    1.413
  Cycle:     39 Energy:      -153.844865  Gnorm:      0.232249  CPU:    1.452
  Cycle:     40 Energy:      -153.946428  Gnorm:      0.274652  CPU:    1.503
  ** Hessian calculated **
  Cycle:     41 Energy:      -154.074237  Gnorm:      0.195105  CPU:    1.589
  ** Hessian calculated **
  Cycle:     42 Energy:      -154.107186  Gnorm:      0.157163  CPU:    1.658
  Cycle:     43 Energy:      -154.137176  Gnorm:      0.136312  CPU:    1.695
  Cycle:     44 Energy:      -154.167226  Gnorm:      0.117613  CPU:    1.731
  Cycle:     45 Energy:      -154.222458  Gnorm:      0.207825  CPU:    1.772
  Cycle:     46 Energy:      -154.298622  Gnorm:      0.232111  CPU:    1.816
  Cycle:     47 Energy:      -154.384244  Gnorm:      0.181057  CPU:    1.859
  Cycle:     48 Energy:      -154.455031  Gnorm:      0.178318  CPU:    1.907
  Cycle:     49 Energy:      -154.482564  Gnorm:      0.119447  CPU:    1.946
  Cycle:     50 Energy:      -154.501154  Gnorm:      0.084855  CPU:    1.998
  Cycle:     51 Energy:      -154.510537  Gnorm:      0.081595  CPU:    2.037
  ** Hessian calculated **
  Cycle:     52 Energy:      -154.570090  Gnorm:      0.058401  CPU:    2.131
  ** Hessian calculated **
  Cycle:     53 Energy:      -154.574679  Gnorm:      0.055111  CPU:    2.209
  Cycle:     54 Energy:      -154.578759  Gnorm:      0.049865  CPU:    2.246
  Cycle:     55 Energy:      -154.586179  Gnorm:      0.075559  CPU:    2.287
  Cycle:     56 Energy:      -154.606948  Gnorm:      0.107224  CPU:    2.332
  Cycle:     57 Energy:      -154.655682  Gnorm:      0.129876  CPU:    2.383
  Cycle:     58 Energy:      -154.673482  Gnorm:      0.149054  CPU:    2.426
  Cycle:     59 Energy:      -154.713573  Gnorm:      0.149430  CPU:    2.473
  Cycle:     60 Energy:      -154.750741  Gnorm:      0.129477  CPU:    2.512
  Cycle:     61 Energy:      -154.776246  Gnorm:      0.131398  CPU:    2.554
  Cycle:     62 Energy:      -154.796013  Gnorm:      0.111095  CPU:    2.602
  ** Hessian calculated **
  Cycle:     63 Energy:      -154.833908  Gnorm:      0.051453  CPU:    2.695
  Cycle:     64 Energy:      -154.840817  Gnorm:      0.137590  CPU:    2.751
  Cycle:     65 Energy:      -154.841363  Gnorm:      0.159781  CPU:    2.799
  Cycle:     66 Energy:      -154.863898  Gnorm:      0.282137  CPU:    2.859
  Cycle:     67 Energy:      -155.024436  Gnorm:      0.230470  CPU:    2.907
  Cycle:     68 Energy:      -155.065296  Gnorm:      0.299531  CPU:    2.945
  Cycle:     69 Energy:      -155.072808  Gnorm:      0.268658  CPU:    2.997
  ** Hessian calculated **
  Cycle:     70 Energy:      -155.426467  Gnorm:      0.371003  CPU:    3.107
  Cycle:     71 Energy:      -155.614677  Gnorm:      0.222964  CPU:    3.138
  Cycle:     72 Energy:      -155.660487  Gnorm:      0.115897  CPU:    3.178
  Cycle:     73 Energy:      -155.693669  Gnorm:      0.058580  CPU:    3.228
  Cycle:     74 Energy:      -155.706563  Gnorm:      0.048086  CPU:    3.272
  Cycle:     75 Energy:      -155.710233  Gnorm:      0.036946  CPU:    3.312
  Cycle:     76 Energy:      -155.712795  Gnorm:      0.030447  CPU:    3.362
  Cycle:     77 Energy:      -155.715467  Gnorm:      0.030841  CPU:    3.416
  Cycle:     78 Energy:      -155.717590  Gnorm:      0.024818  CPU:    3.466
  Cycle:     79 Energy:      -155.720221  Gnorm:      0.043262  CPU:    3.517
  ** Hessian calculated **
  Cycle:     80 Energy:      -155.730917  Gnorm:      0.070437  CPU:    3.624
  Cycle:     81 Energy:      -155.735439  Gnorm:      0.052881  CPU:    3.664
  Cycle:     82 Energy:      -155.737588  Gnorm:      0.015831  CPU:    3.704
  Cycle:     83 Energy:      -155.739414  Gnorm:      0.026555  CPU:    3.754
  Cycle:     84 Energy:      -155.740131  Gnorm:      0.005728  CPU:    3.807
  Cycle:     85 Energy:      -155.740319  Gnorm:      0.007387  CPU:    3.856
  Cycle:     86 Energy:      -155.740379  Gnorm:      0.001822  CPU:    3.907
  Cycle:     87 Energy:      -155.740392  Gnorm:      0.001907  CPU:    3.949
  Cycle:     88 Energy:      -155.740408  Gnorm:      0.002182  CPU:    3.998
  Cycle:     89 Energy:      -155.740414  Gnorm:      0.000695  CPU:    4.041
  ** Hessian calculated **


  **** Optimisation achieved ****


  Final energy =    -155.74041557 eV      
  Final Gnorm  =       0.00000181

  Components of energy : 

--------------------------------------------------------------------------------
  Interatomic potentials     =          12.36530901 eV    
  Monopole - monopole (real) =         -67.22514286 eV    
  Monopole - monopole (recip)=        -100.88058172 eV    
  Monopole - monopole (total)=        -168.10572458 eV    
--------------------------------------------------------------------------------
  Total lattice energy       =        -155.74041557 eV    
--------------------------------------------------------------------------------
  Total lattice energy       =          -15026.5694 kJ/(mole unit cells)
--------------------------------------------------------------------------------

  Final fractional coordinates of atoms :

--------------------------------------------------------------------------------
   No.  Atomic        x           y          z          Radius
        Label       (Frac)      (Frac)     (Frac)       (Angs) 
--------------------------------------------------------------------------------
     1  Ti    c     0.404788    0.205532    0.845786    0.000000
     2  Ti    c     0.859709    0.350042    0.626837    0.000000
     3  Ti    c     0.963733    0.871404    0.924981    0.000000
     4  Ti    c     0.426196    0.775454    0.079174    0.000000
     5  O     c     0.339439    0.866622    0.690831    0.000000
     6  O     c     0.521725    0.457244    0.804843    0.000000
     7  O     c     0.757625    0.687923    0.929403    0.000000
     8  O     c     0.743228    0.074119    0.528354    0.000000
     9  O     c     0.147938    0.403595    0.392966    0.000000
    10  O     c     0.440788    0.084766    0.253163    0.000000
    11  O     c     0.097416    0.797973    0.300029    0.000000
    12  O     c     0.944052    0.217588    0.987956    0.000000
--------------------------------------------------------------------------------

  Final Cartesian lattice vectors (Angstroms) :

        6.328467    0.616413    1.750695
        0.591147    6.374951   -1.205578
        0.503649   -0.553674    3.509663


  Final cell parameters and derivatives :

--------------------------------------------------------------------------------
       a            6.595028 Angstrom     dE/de1(xx)     0.000010 eV/strain
       b            6.514819 Angstrom     dE/de2(yy)     0.000007 eV/strain
       c            3.588587 Angstrom     dE/de3(zz)     0.000000 eV/strain
       alpha      108.615880 Degrees      dE/de4(yz)    -0.000003 eV/strain
       beta        67.674191 Degrees      dE/de5(xz)    -0.000001 eV/strain
       gamma       82.564628 Degrees      dE/de6(xy)     0.000003 eV/strain
--------------------------------------------------------------------------------

  Primitive cell volume =           129.521247 Angs**3

  Density of cell =      4.096501 g/cm**3

  Non-primitive cell volume =           129.521247 Angs**3


  Final internal derivatives :

--------------------------------------------------------------------------------
   No.  Atomic          a             b             c           Radius
        Label          (eV)          (eV)          (eV)        (eV/Angs)
--------------------------------------------------------------------------------
      1 Ti    c       0.000000      0.000000      0.000000      0.000000
      2 Ti    c      -0.000008     -0.000001     -0.000012      0.000000
      3 Ti    c       0.000003      0.000001     -0.000001      0.000000
      4 Ti    c       0.000003      0.000012      0.000006      0.000000
      5 O     c       0.000006      0.000002     -0.000007      0.000000
      6 O     c      -0.000034     -0.000037     -0.000011      0.000000
      7 O     c       0.000022      0.000025      0.000011      0.000000
      8 O     c      -0.000002      0.000009      0.000000      0.000000
      9 O     c       0.000008      0.000003      0.000003      0.000000
     10 O     c       0.000004     -0.000005      0.000005      0.000000
     11 O     c      -0.000000     -0.000010      0.000004      0.000000
     12 O     c      -0.000007     -0.000007      0.000004      0.000000
--------------------------------------------------------------------------------
  Maximum abs         0.000034      0.000037      0.000012      0.000000
--------------------------------------------------------------------------------


  Time to end of optimisation =       4.1235 seconds


  Peak dynamic memory used =       1.84 MB 


  Timing analysis for GULP :

--------------------------------------------------------------------------------
  Task / Subroutine                                          Time (Seconds)
--------------------------------------------------------------------------------
  Calculation of reciprocal space energy and derivatives          0.1288
  Calculation of real space energy and derivatives                3.9646
  Calculation and manipulation of Hessian matrix                  0.0011
  Calculation of matrix inversion                                 0.0020
  Global summation overhead                                       0.0006
--------------------------------------------------------------------------------
  Total CPU time                                                  4.1236
--------------------------------------------------------------------------------


  Job Finished at 11:27.02 29th May        2024                               

