********************************************************************************
*                       GENERAL UTILITY LATTICE PROGRAM                        *
*                                 Julian Gale                                  *
*                       Curtin Institute for Computation                       *
*                    School of Molecular and Life Sciences                     *
*                    Curtin University, Western Australia                      *
********************************************************************************
* Version = 6.0.0 * Last modified =  12th July 2021                            *
********************************************************************************
*  optimise     - perform optimisation run                                     *
*  conv         - constant volume calculation                                  *
*  nosymmetry   - turn off symmetry after initial structure generation         *
*  conjugate    - use conjugate gradients minimiser                            *
********************************************************************************

  Job Started  at 12:51.26 10th June       2024                               

  Number of CPUs =     1


  Total number of configurations input =      1

********************************************************************************
*  Input for Configuration =   1                                               *
********************************************************************************

  Formula = Mg4Al8O16                                                   

  Number of irreducible atoms/shells =      28


  Total number atoms/shells =      28

  Dimensionality = 3               :  Bulk   



  Cartesian lattice vectors (Angstroms) :

        9.346157    0.000000    0.000000
        0.000000    2.688366    0.000000
        0.000000    0.000000    8.002181

  Cell parameters (Angstroms/Degrees):

  a =       9.3462    alpha =  90.0000
  b =       2.6884    beta  =  90.0000
  c =       8.0022    gamma =  90.0000

  Initial cell volume =         201.061925 Angs**3

  Temperature of configuration =   0.00     K 

  Pressure of configuration =       100.000 GPa 

  Fractional coordinates of asymmetric unit :

--------------------------------------------------------------------------------
   No.  Atomic       x           y          z         Charge      Occupancy
        Label      (Frac)      (Frac)     (Frac)        (e)         (Frac)  
--------------------------------------------------------------------------------
      1 Mg    c    0.710093    0.767559    0.557808     2.00000    1.000000    
      2 Mg    c    0.499702 *  0.767559 *  0.057808 *   2.00000    1.000000    
      3 Mg    c    0.210093 *  0.267559 *  0.554335 *   2.00000    1.000000    
      4 Mg    c    0.999702 *  0.267559 *  0.054335 *   2.00000    1.000000    
      5 Al    c    0.968364 *  0.767559 *  0.727934 *   3.00000    1.000000    
      6 Al    c    0.241431 *  0.767559 *  0.227934 *   3.00000    1.000000    
      7 Al    c    0.739081 *  0.767559 *  0.229233 *   3.00000    1.000000    
      8 Al    c    0.470714 *  0.767559 *  0.729232 *   3.00000    1.000000    
      9 Al    c    0.741431 *  0.267559 *  0.884209 *   3.00000    1.000000    
     10 Al    c    0.970714 *  0.267559 *  0.382910 *   3.00000    1.000000    
     11 Al    c    0.468364 *  0.267559 *  0.384209 *   3.00000    1.000000    
     12 Al    c    0.239081 *  0.267559 *  0.882911 *   3.00000    1.000000    
     13 O     c    0.927787 *  0.767559 *  0.225192 *  -2.00000    1.000000    
     14 O     c    0.282008 *  0.767559 *  0.725192 *  -2.00000    1.000000    
     15 O     c    0.526191 *  0.267559 *  0.592643 *  -2.00000    1.000000    
     16 O     c    0.026191 *  0.767559 *  0.519500 *  -2.00000    1.000000    
     17 O     c    0.638813 *  0.767559 *  0.819890 *  -2.00000    1.000000    
     18 O     c    0.183604 *  0.767559 *  0.019500 *  -2.00000    1.000000    
     19 O     c    0.570982 *  0.767559 *  0.319890 *  -2.00000    1.000000    
     20 O     c    0.873701 *  0.767559 *  0.930822 *  -2.00000    1.000000    
     21 O     c    0.427787 *  0.267559 *  0.886951 *  -2.00000    1.000000    
     22 O     c    0.782008 *  0.267559 *  0.386951 *  -2.00000    1.000000    
     23 O     c    0.683604 *  0.267559 *  0.092643 *  -2.00000    1.000000    
     24 O     c    0.070982 *  0.267559 *  0.792253 *  -2.00000    1.000000    
     25 O     c    0.836094 *  0.267559 *  0.681321 *  -2.00000    1.000000    
     26 O     c    0.373701 *  0.267559 *  0.181321 *  -2.00000    1.000000    
     27 O     c    0.138813 *  0.267559 *  0.292253 *  -2.00000    1.000000    
     28 O     c    0.336094 *  0.767559 *  0.430822 *  -2.00000    1.000000    
--------------------------------------------------------------------------------



********************************************************************************
*  General input information                                                   *
********************************************************************************

  Species output for all configurations : 

--------------------------------------------------------------------------------
  Species    Type    Atomic    Atomic    Charge       Radii (Angs)     Library
                     Number     Mass       (e)     Cova   Ionic  VDW   Symbol
--------------------------------------------------------------------------------
    Mg       Core       12      24.31   2.000000   1.100  0.000  1.640          
    Al       Core       13      26.98   3.000000   1.350  0.000  2.050          
    O        Core        8      16.00  -2.000000   0.730  0.000  1.360          
--------------------------------------------------------------------------------


  Lattice summation method               =    Ewald          (3-D)
                                         =    Parry          (2-D)
                                         =    Saunders et al (1-D)
  Accuracy factor for lattice sums       =   12.000


  Analytic derivatives to be used

  Time limit = Infinity

  Maximum range for interatomic potentials =    100000.000000 Angstroms

  General interatomic potentials :

--------------------------------------------------------------------------------
Atom  Types   Potential      Parameter       Value         Units   Cutoffs(Ang)
  1     2                                                            Min /  Max 
--------------------------------------------------------------------------------
O    c Mg   c Lennard       Lennard-Jones A  1.5000000    eV*Ang^m  0.000  6.000
                            Lennard-Jones B  0.0000000    eV*Ang^n  
                            Exponent m        12          None
                            Exponent n         6          None
--------------------------------------------------------------------------------
O    c Al   c Lennard       Lennard-Jones A  1.5000000    eV*Ang^m  0.000  6.000
                            Lennard-Jones B  0.0000000    eV*Ang^n  
                            Exponent m        12          None
                            Exponent n         6          None
--------------------------------------------------------------------------------
O    c O    c Lennard       Lennard-Jones A  1.5000000    eV*Ang^m  0.000  6.000
                            Lennard-Jones B  0.0000000    eV*Ang^n  
                            Exponent m        12          None
                            Exponent n         6          None
--------------------------------------------------------------------------------
Mg   c Mg   c Lennard       Lennard-Jones A  1.5000000    eV*Ang^m  0.000  6.000
                            Lennard-Jones B  0.0000000    eV*Ang^n  
                            Exponent m        12          None
                            Exponent n         6          None
--------------------------------------------------------------------------------
Mg   c Al   c Lennard       Lennard-Jones A  1.5000000    eV*Ang^m  0.000  6.000
                            Lennard-Jones B  0.0000000    eV*Ang^n  
                            Exponent m        12          None
                            Exponent n         6          None
--------------------------------------------------------------------------------
Al   c Al   c Lennard       Lennard-Jones A  1.5000000    eV*Ang^m  0.000  6.000
                            Lennard-Jones B  0.0000000    eV*Ang^n  
                            Exponent m        12          None
                            Exponent n         6          None
--------------------------------------------------------------------------------
O    c Mg   c Buckingham    Buckingham A     1428.5000    eV        0.000  7.000
                            Buckingham rho  0.29450000    Ang       
                            Buckingham C     0.0000000    eV*Ang^6  
--------------------------------------------------------------------------------
O    c Al   c Buckingham    Buckingham A     1114.9000    eV        0.000  7.000
                            Buckingham rho  0.31180000    Ang       
                            Buckingham C     0.0000000    eV*Ang^6  
--------------------------------------------------------------------------------
O    c O    c Buckingham    Buckingham A     2023.8000    eV        0.000  7.000
                            Buckingham rho  0.26740000    Ang       
                            Buckingham C     0.0000000    eV*Ang^6  
--------------------------------------------------------------------------------

********************************************************************************
*  Output for configuration   1                                                *
********************************************************************************


  Components of enthalpy : 

--------------------------------------------------------------------------------
  Interatomic potentials     =         218.79130282 eV    
  Monopole - monopole (real) =        -506.12353785 eV    
  Monopole - monopole (recip)=        -493.14798360 eV    
  Monopole - monopole (total)=        -999.27152145 eV    
  Pressure*volume            =         125.49201435 eV    
--------------------------------------------------------------------------------
  Total lattice enthalpy     =        -654.98820428 eV    
--------------------------------------------------------------------------------
  Total lattice enthalpy     =          -63196.3493 kJ/(mole unit cells)
--------------------------------------------------------------------------------


  Number of variables =       81

  Maximum number of calculations  =           850
  Maximum Hessian update interval =            10
  Maximum step size               =   1.000000000
  Maximum parameter tolerance     =   0.000010000
  Maximum function  tolerance     =   0.000010000
  Maximum gradient  tolerance     =   0.001000000
  Maximum gradient  component     =   0.010000000

  Conjugate gradient optimiser to be used

  Lower half triangular hessian to be used

  Minimiser to switch to RFO
  When gradient norm is less than     0.010000

  Start of bulk optimisation :

  Cycle:      0 Energy:      -654.988204  Gnorm:      0.004079  CPU:    0.026
  ** Hessian has required structure
  Cycle:      1 Energy:      -654.988219  Gnorm:      0.000001  CPU:    0.103
  ** Hessian has required structure


  **** Optimisation achieved ****


  Final enthalpy =    -654.98821904 eV      
  Final Gnorm    =       0.00000000

  Components of enthalpy : 

--------------------------------------------------------------------------------
  Interatomic potentials     =         218.76778666 eV    
  Monopole - monopole (real) =        -506.10020624 eV    
  Monopole - monopole (recip)=        -493.14781380 eV    
  Monopole - monopole (total)=        -999.24802005 eV    
  Pressure*volume            =         125.49201435 eV    
--------------------------------------------------------------------------------
  Total lattice enthalpy     =        -654.98821904 eV    
--------------------------------------------------------------------------------
  Total lattice enthalpy     =          -63196.3507 kJ/(mole unit cells)
--------------------------------------------------------------------------------

  Final fractional coordinates of atoms :

--------------------------------------------------------------------------------
   No.  Atomic        x           y          z          Radius
        Label       (Frac)      (Frac)     (Frac)       (Angs) 
--------------------------------------------------------------------------------
     1  Mg    c     0.710093    0.767559    0.557808    0.000000
     2  Mg    c     0.499770    0.767559    0.057808    0.000000
     3  Mg    c     0.210093    0.267559    0.554355    0.000000
     4  Mg    c     0.999770    0.267559    0.054355    0.000000
     5  Al    c     0.968378    0.767559    0.727949    0.000000
     6  Al    c     0.241485    0.767559    0.227949    0.000000
     7  Al    c     0.739122    0.767559    0.229228    0.000000
     8  Al    c     0.470741    0.767559    0.729228    0.000000
     9  Al    c     0.741485    0.267559    0.884214    0.000000
    10  Al    c     0.970741    0.267559    0.382935    0.000000
    11  Al    c     0.468378    0.267559    0.384214    0.000000
    12  Al    c     0.239122    0.267559    0.882935    0.000000
    13  O     c     0.927845    0.767559    0.225210    0.000000
    14  O     c     0.282018    0.767559    0.725210    0.000000
    15  O     c     0.526250    0.267559    0.592644    0.000000
    16  O     c     0.026250    0.767559    0.519520    0.000000
    17  O     c     0.638862    0.767559    0.819870    0.000000
    18  O     c     0.183613    0.767559    0.019520    0.000000
    19  O     c     0.571001    0.767559    0.319870    0.000000
    20  O     c     0.873726    0.767559    0.930862    0.000000
    21  O     c     0.427845    0.267559    0.886953    0.000000
    22  O     c     0.782018    0.267559    0.386953    0.000000
    23  O     c     0.683613    0.267559    0.092644    0.000000
    24  O     c     0.071001    0.267559    0.792293    0.000000
    25  O     c     0.836137    0.267559    0.681302    0.000000
    26  O     c     0.373726    0.267559    0.181302    0.000000
    27  O     c     0.138862    0.267559    0.292293    0.000000
    28  O     c     0.336137    0.767559    0.430862    0.000000
--------------------------------------------------------------------------------

  Final internal derivatives :

--------------------------------------------------------------------------------
   No.  Atomic          a             b             c           Radius
        Label          (eV)          (eV)          (eV)        (eV/Angs)
--------------------------------------------------------------------------------
      1 Mg    c       0.000000      0.000000      0.000000      0.000000
      2 Mg    c      -0.000000     -0.000000     -0.000000      0.000000
      3 Mg    c       0.000000     -0.000000      0.000000      0.000000
      4 Mg    c      -0.000000      0.000000      0.000000      0.000000
      5 Al    c      -0.000000     -0.000000      0.000000      0.000000
      6 Al    c       0.000000     -0.000000      0.000000      0.000000
      7 Al    c       0.000000      0.000000      0.000000      0.000000
      8 Al    c      -0.000000      0.000000      0.000000      0.000000
      9 Al    c       0.000000     -0.000000     -0.000000      0.000000
     10 Al    c      -0.000000      0.000000     -0.000000      0.000000
     11 Al    c      -0.000000     -0.000000     -0.000000      0.000000
     12 Al    c       0.000000     -0.000000     -0.000000      0.000000
     13 O     c       0.000000     -0.000000      0.000000      0.000000
     14 O     c      -0.000000     -0.000000      0.000000      0.000000
     15 O     c      -0.000000     -0.000000      0.000000      0.000000
     16 O     c      -0.000000     -0.000000     -0.000000      0.000000
     17 O     c      -0.000000      0.000000      0.000000      0.000000
     18 O     c       0.000000     -0.000000     -0.000000      0.000000
     19 O     c       0.000000     -0.000000      0.000000      0.000000
     20 O     c      -0.000000     -0.000000     -0.000000      0.000000
     21 O     c       0.000000      0.000000     -0.000000      0.000000
     22 O     c      -0.000000     -0.000000     -0.000000      0.000000
     23 O     c       0.000000      0.000000      0.000000      0.000000
     24 O     c       0.000000      0.000000     -0.000000      0.000000
     25 O     c       0.000000      0.000000      0.000000      0.000000
     26 O     c      -0.000000      0.000000      0.000000      0.000000
     27 O     c      -0.000000      0.000000     -0.000000      0.000000
     28 O     c       0.000000      0.000000     -0.000000      0.000000
--------------------------------------------------------------------------------
  Maximum abs         0.000000      0.000000      0.000000      0.000000
--------------------------------------------------------------------------------


  Time to end of optimisation =       0.1539 seconds


  Peak dynamic memory used =       2.01 MB 


  Timing analysis for GULP :

--------------------------------------------------------------------------------
  Task / Subroutine                                          Time (Seconds)
--------------------------------------------------------------------------------
  Calculation of reciprocal space energy and derivatives          0.0356
  Calculation of real space energy and derivatives                0.0783
  Calculation and manipulation of Hessian matrix                  0.0282
--------------------------------------------------------------------------------
  Total CPU time                                                  0.1540
--------------------------------------------------------------------------------


  Job Finished at 12:51.26 10th June       2024                               

