********************************************************************************
*                       GENERAL UTILITY LATTICE PROGRAM                        *
*                                 Julian Gale                                  *
*                       Curtin Institute for Computation                       *
*                    School of Molecular and Life Sciences                     *
*                    Curtin University, Western Australia                      *
********************************************************************************
* Version = 6.0.0 * Last modified =  12th July 2021                            *
********************************************************************************
*  optimise     - perform optimisation run                                     *
*  conv         - constant volume calculation                                  *
*  nosymmetry   - turn off symmetry after initial structure generation         *
*  conjugate    - use conjugate gradients minimiser                            *
********************************************************************************

  Job Started  at 12:51.22 10th June       2024                               

  Number of CPUs =     1


  Total number of configurations input =      1

********************************************************************************
*  Input for Configuration =   1                                               *
********************************************************************************

  Formula = Mg4Al8O16                                                   

  Number of irreducible atoms/shells =      28


  Total number atoms/shells =      28

  Dimensionality = 3               :  Bulk   



  Cartesian lattice vectors (Angstroms) :

        9.346157    0.000000    0.000000
        0.000000    2.688366    0.000000
        0.000000    0.000000    8.002181

  Cell parameters (Angstroms/Degrees):

  a =       9.3462    alpha =  90.0000
  b =       2.6884    beta  =  90.0000
  c =       8.0022    gamma =  90.0000

  Initial cell volume =         201.061925 Angs**3

  Temperature of configuration =   0.00     K 

  Pressure of configuration =       100.000 GPa 

  Fractional coordinates of asymmetric unit :

--------------------------------------------------------------------------------
   No.  Atomic       x           y          z         Charge      Occupancy
        Label      (Frac)      (Frac)     (Frac)        (e)         (Frac)  
--------------------------------------------------------------------------------
      1 Mg    c    0.998498    0.050446    0.004642     2.00000    1.000000    
      2 Mg    c    0.208889 *  0.050446 *  0.504642 *   2.00000    1.000000    
      3 Mg    c    0.498498 *  0.550446 *  0.001169 *   2.00000    1.000000    
      4 Mg    c    0.708889 *  0.550446 *  0.501169 *   2.00000    1.000000    
      5 Al    c    0.967160 *  0.550446 *  0.331043 *   3.00000    1.000000    
      6 Al    c    0.237877 *  0.050446 *  0.176066 *   3.00000    1.000000    
      7 Al    c    0.467160 *  0.050446 *  0.674768 *   3.00000    1.000000    
      8 Al    c    0.969510 *  0.050446 *  0.676067 *   3.00000    1.000000    
      9 Al    c    0.469510 *  0.550446 *  0.329744 *   3.00000    1.000000    
     10 Al    c    0.740227 *  0.050446 *  0.174768 *   3.00000    1.000000    
     11 Al    c    0.240227 *  0.550446 *  0.831043 *   3.00000    1.000000    
     12 Al    c    0.737877 *  0.550446 *  0.829744 *   3.00000    1.000000    
     13 O     c    0.069778 *  0.050446 *  0.266724 *  -2.00000    1.000000    
     14 O     c    0.872497 *  0.550446 *  0.128155 *  -2.00000    1.000000    
     15 O     c    0.926583 *  0.550446 *  0.833785 *  -2.00000    1.000000    
     16 O     c    0.182400 *  0.550446 *  0.039477 *  -2.00000    1.000000    
     17 O     c    0.280803 *  0.550446 *  0.333785 *  -2.00000    1.000000    
     18 O     c    0.024987 *  0.550446 *  0.539477 *  -2.00000    1.000000    
     19 O     c    0.137609 *  0.050446 *  0.766724 *  -2.00000    1.000000    
     20 O     c    0.334890 *  0.550446 *  0.628155 *  -2.00000    1.000000    
     21 O     c    0.637609 *  0.550446 *  0.239087 *  -2.00000    1.000000    
     22 O     c    0.426583 *  0.050446 *  0.172026 *  -2.00000    1.000000    
     23 O     c    0.682400 *  0.050446 *  0.966334 *  -2.00000    1.000000    
     24 O     c    0.372497 *  0.050446 *  0.877656 *  -2.00000    1.000000    
     25 O     c    0.834889 *  0.050446 *  0.377656 *  -2.00000    1.000000    
     26 O     c    0.524987 *  0.050446 *  0.466334 *  -2.00000    1.000000    
     27 O     c    0.569778 *  0.550446 *  0.739087 *  -2.00000    1.000000    
     28 O     c    0.780803 *  0.050446 *  0.672026 *  -2.00000    1.000000    
--------------------------------------------------------------------------------



********************************************************************************
*  General input information                                                   *
********************************************************************************

  Species output for all configurations : 

--------------------------------------------------------------------------------
  Species    Type    Atomic    Atomic    Charge       Radii (Angs)     Library
                     Number     Mass       (e)     Cova   Ionic  VDW   Symbol
--------------------------------------------------------------------------------
    Mg       Core       12      24.31   2.000000   1.100  0.000  1.640          
    Al       Core       13      26.98   3.000000   1.350  0.000  2.050          
    O        Core        8      16.00  -2.000000   0.730  0.000  1.360          
--------------------------------------------------------------------------------


  Lattice summation method               =    Ewald          (3-D)
                                         =    Parry          (2-D)
                                         =    Saunders et al (1-D)
  Accuracy factor for lattice sums       =   12.000


  Analytic derivatives to be used

  Time limit = Infinity

  Maximum range for interatomic potentials =    100000.000000 Angstroms

  General interatomic potentials :

--------------------------------------------------------------------------------
Atom  Types   Potential      Parameter       Value         Units   Cutoffs(Ang)
  1     2                                                            Min /  Max 
--------------------------------------------------------------------------------
O    c Mg   c Lennard       Lennard-Jones A  1.5000000    eV*Ang^m  0.000  6.000
                            Lennard-Jones B  0.0000000    eV*Ang^n  
                            Exponent m        12          None
                            Exponent n         6          None
--------------------------------------------------------------------------------
O    c Al   c Lennard       Lennard-Jones A  1.5000000    eV*Ang^m  0.000  6.000
                            Lennard-Jones B  0.0000000    eV*Ang^n  
                            Exponent m        12          None
                            Exponent n         6          None
--------------------------------------------------------------------------------
O    c O    c Lennard       Lennard-Jones A  1.5000000    eV*Ang^m  0.000  6.000
                            Lennard-Jones B  0.0000000    eV*Ang^n  
                            Exponent m        12          None
                            Exponent n         6          None
--------------------------------------------------------------------------------
Mg   c Mg   c Lennard       Lennard-Jones A  1.5000000    eV*Ang^m  0.000  6.000
                            Lennard-Jones B  0.0000000    eV*Ang^n  
                            Exponent m        12          None
                            Exponent n         6          None
--------------------------------------------------------------------------------
Mg   c Al   c Lennard       Lennard-Jones A  1.5000000    eV*Ang^m  0.000  6.000
                            Lennard-Jones B  0.0000000    eV*Ang^n  
                            Exponent m        12          None
                            Exponent n         6          None
--------------------------------------------------------------------------------
Al   c Al   c Lennard       Lennard-Jones A  1.5000000    eV*Ang^m  0.000  6.000
                            Lennard-Jones B  0.0000000    eV*Ang^n  
                            Exponent m        12          None
                            Exponent n         6          None
--------------------------------------------------------------------------------
O    c Mg   c Buckingham    Buckingham A     1428.5000    eV        0.000  7.000
                            Buckingham rho  0.29450000    Ang       
                            Buckingham C     0.0000000    eV*Ang^6  
--------------------------------------------------------------------------------
O    c Al   c Buckingham    Buckingham A     1114.9000    eV        0.000  7.000
                            Buckingham rho  0.31180000    Ang       
                            Buckingham C     0.0000000    eV*Ang^6  
--------------------------------------------------------------------------------
O    c O    c Buckingham    Buckingham A     2023.8000    eV        0.000  7.000
                            Buckingham rho  0.26740000    Ang       
                            Buckingham C     0.0000000    eV*Ang^6  
--------------------------------------------------------------------------------

********************************************************************************
*  Output for configuration   1                                                *
********************************************************************************


  Components of enthalpy : 

--------------------------------------------------------------------------------
  Interatomic potentials     =         218.79118813 eV    
  Monopole - monopole (real) =        -506.12342519 eV    
  Monopole - monopole (recip)=        -493.14798173 eV    
  Monopole - monopole (total)=        -999.27140692 eV    
  Pressure*volume            =         125.49201435 eV    
--------------------------------------------------------------------------------
  Total lattice enthalpy     =        -654.98820444 eV    
--------------------------------------------------------------------------------
  Total lattice enthalpy     =          -63196.3493 kJ/(mole unit cells)
--------------------------------------------------------------------------------


  Number of variables =       81

  Maximum number of calculations  =           850
  Maximum Hessian update interval =            10
  Maximum step size               =   1.000000000
  Maximum parameter tolerance     =   0.000010000
  Maximum function  tolerance     =   0.000010000
  Maximum gradient  tolerance     =   0.001000000
  Maximum gradient  component     =   0.010000000

  Conjugate gradient optimiser to be used

  Lower half triangular hessian to be used

  Minimiser to switch to RFO
  When gradient norm is less than     0.010000

  Start of bulk optimisation :

  Cycle:      0 Energy:      -654.988204  Gnorm:      0.004035  CPU:    0.028
  ** Hessian has required structure
  Cycle:      1 Energy:      -654.988219  Gnorm:      0.000001  CPU:    0.106
  ** Hessian has required structure


  **** Optimisation achieved ****


  Final enthalpy =    -654.98821904 eV      
  Final Gnorm    =       0.00000001

  Components of enthalpy : 

--------------------------------------------------------------------------------
  Interatomic potentials     =         218.76778668 eV    
  Monopole - monopole (real) =        -506.10020627 eV    
  Monopole - monopole (recip)=        -493.14781380 eV    
  Monopole - monopole (total)=        -999.24802008 eV    
  Pressure*volume            =         125.49201435 eV    
--------------------------------------------------------------------------------
  Total lattice enthalpy     =        -654.98821904 eV    
--------------------------------------------------------------------------------
  Total lattice enthalpy     =          -63196.3507 kJ/(mole unit cells)
--------------------------------------------------------------------------------

  Final fractional coordinates of atoms :

--------------------------------------------------------------------------------
   No.  Atomic        x           y          z          Radius
        Label       (Frac)      (Frac)     (Frac)       (Angs) 
--------------------------------------------------------------------------------
     1  Mg    c     0.998498    0.050446    0.004642    0.000000
     2  Mg    c     0.208821    0.050446    0.504642    0.000000
     3  Mg    c     0.498498    0.550446    0.001189    0.000000
     4  Mg    c     0.708821    0.550446    0.501189    0.000000
     5  Al    c     0.967106    0.550446    0.331048    0.000000
     6  Al    c     0.237850    0.050446    0.176062    0.000000
     7  Al    c     0.467106    0.050446    0.674783    0.000000
     8  Al    c     0.969469    0.050446    0.676062    0.000000
     9  Al    c     0.469469    0.550446    0.329769    0.000000
    10  Al    c     0.740213    0.050446    0.174783    0.000000
    11  Al    c     0.240213    0.550446    0.831048    0.000000
    12  Al    c     0.737850    0.550446    0.829769    0.000000
    13  O     c     0.069729    0.050446    0.266704    0.000000
    14  O     c     0.872454    0.550446    0.128136    0.000000
    15  O     c     0.926573    0.550446    0.833787    0.000000
    16  O     c     0.182341    0.550446    0.039478    0.000000
    17  O     c     0.280746    0.550446    0.333787    0.000000
    18  O     c     0.024978    0.550446    0.539478    0.000000
    19  O     c     0.137590    0.050446    0.766704    0.000000
    20  O     c     0.334865    0.550446    0.628136    0.000000
    21  O     c     0.637590    0.550446    0.239127    0.000000
    22  O     c     0.426573    0.050446    0.172044    0.000000
    23  O     c     0.682341    0.050446    0.966354    0.000000
    24  O     c     0.372454    0.050446    0.877696    0.000000
    25  O     c     0.834865    0.050446    0.377696    0.000000
    26  O     c     0.524978    0.050446    0.466354    0.000000
    27  O     c     0.569729    0.550446    0.739127    0.000000
    28  O     c     0.780746    0.050446    0.672044    0.000000
--------------------------------------------------------------------------------

  Final internal derivatives :

--------------------------------------------------------------------------------
   No.  Atomic          a             b             c           Radius
        Label          (eV)          (eV)          (eV)        (eV/Angs)
--------------------------------------------------------------------------------
      1 Mg    c       0.000000      0.000000      0.000000      0.000000
      2 Mg    c       0.000000      0.000000     -0.000000      0.000000
      3 Mg    c      -0.000000      0.000000      0.000000      0.000000
      4 Mg    c       0.000000      0.000000      0.000000      0.000000
      5 Al    c      -0.000000     -0.000000      0.000000      0.000000
      6 Al    c       0.000000     -0.000000      0.000000      0.000000
      7 Al    c      -0.000000      0.000000     -0.000000      0.000000
      8 Al    c      -0.000000     -0.000000     -0.000000      0.000000
      9 Al    c      -0.000000      0.000000      0.000000      0.000000
     10 Al    c       0.000000     -0.000000     -0.000000      0.000000
     11 Al    c       0.000000      0.000000      0.000000      0.000000
     12 Al    c       0.000000     -0.000000      0.000000      0.000000
     13 O     c      -0.000000     -0.000000      0.000000      0.000000
     14 O     c      -0.000000     -0.000000     -0.000000      0.000000
     15 O     c       0.000000      0.000000      0.000000      0.000000
     16 O     c       0.000000      0.000000     -0.000000      0.000000
     17 O     c      -0.000000     -0.000000      0.000000      0.000000
     18 O     c      -0.000000     -0.000000     -0.000000      0.000000
     19 O     c       0.000000     -0.000000      0.000000      0.000000
     20 O     c       0.000000     -0.000000     -0.000000      0.000000
     21 O     c       0.000000     -0.000000     -0.000000      0.000000
     22 O     c       0.000000     -0.000000     -0.000000      0.000000
     23 O     c       0.000000      0.000000      0.000000      0.000000
     24 O     c      -0.000000     -0.000000      0.000000      0.000000
     25 O     c       0.000000      0.000000      0.000000      0.000000
     26 O     c      -0.000000     -0.000000      0.000000      0.000000
     27 O     c      -0.000000     -0.000000     -0.000000      0.000000
     28 O     c      -0.000000      0.000000     -0.000000      0.000000
--------------------------------------------------------------------------------
  Maximum abs         0.000000      0.000000      0.000000      0.000000
--------------------------------------------------------------------------------


  Time to end of optimisation =       0.1570 seconds


  Peak dynamic memory used =       2.01 MB 


  Timing analysis for GULP :

--------------------------------------------------------------------------------
  Task / Subroutine                                          Time (Seconds)
--------------------------------------------------------------------------------
  Calculation of reciprocal space energy and derivatives          0.0364
  Calculation of real space energy and derivatives                0.0790
  Calculation and manipulation of Hessian matrix                  0.0278
  Symmetry generation of equivalent positions                     0.0001
--------------------------------------------------------------------------------
  Total CPU time                                                  0.1571
--------------------------------------------------------------------------------


  Job Finished at 12:51.22 10th June       2024                               

