********************************************************************************
*                       GENERAL UTILITY LATTICE PROGRAM                        *
*                                 Julian Gale                                  *
*                       Curtin Institute for Computation                       *
*                    School of Molecular and Life Sciences                     *
*                    Curtin University, Western Australia                      *
********************************************************************************
* Version = 6.0.0 * Last modified =  12th July 2021                            *
********************************************************************************
*  optimise     - perform optimisation run                                     *
*  conv         - constant volume calculation                                  *
*  nosymmetry   - turn off symmetry after initial structure generation         *
*  conjugate    - use conjugate gradients minimiser                            *
********************************************************************************

  Job Started  at 12:51.23 10th June       2024                               

  Number of CPUs =     1


  Total number of configurations input =      1

********************************************************************************
*  Input for Configuration =   1                                               *
********************************************************************************

  Formula = Mg4Al8O16                                                   

  Number of irreducible atoms/shells =      28


  Total number atoms/shells =      28

  Dimensionality = 3               :  Bulk   



  Cartesian lattice vectors (Angstroms) :

        9.346156    0.000000    0.000000
        0.000000    2.688367    0.000000
        0.000000    0.000000    8.002181

  Cell parameters (Angstroms/Degrees):

  a =       9.3462    alpha =  90.0000
  b =       2.6884    beta  =  90.0000
  c =       8.0022    gamma =  90.0000

  Initial cell volume =         201.061979 Angs**3

  Temperature of configuration =   0.00     K 

  Pressure of configuration =       100.000 GPa 

  Fractional coordinates of asymmetric unit :

--------------------------------------------------------------------------------
   No.  Atomic       x           y          z         Charge      Occupancy
        Label      (Frac)      (Frac)     (Frac)        (e)         (Frac)  
--------------------------------------------------------------------------------
      1 Mg    c    0.707641    0.373478    0.562539     2.00000    1.000000    
      2 Mg    c    0.497250 *  0.373478 *  0.062539 *   2.00000    1.000000    
      3 Mg    c    0.207641 *  0.873478 *  0.559066 *   2.00000    1.000000    
      4 Mg    c    0.997250 *  0.873478 *  0.059066 *   2.00000    1.000000    
      5 Al    c    0.965912 *  0.373478 *  0.732665 *   3.00000    1.000000    
      6 Al    c    0.238979 *  0.373478 *  0.232665 *   3.00000    1.000000    
      7 Al    c    0.736629 *  0.373478 *  0.233963 *   3.00000    1.000000    
      8 Al    c    0.468262 *  0.373478 *  0.733963 *   3.00000    1.000000    
      9 Al    c    0.738979 *  0.873478 *  0.888940 *   3.00000    1.000000    
     10 Al    c    0.968262 *  0.873478 *  0.387642 *   3.00000    1.000000    
     11 Al    c    0.465912 *  0.873478 *  0.388940 *   3.00000    1.000000    
     12 Al    c    0.236629 *  0.873478 *  0.887642 *   3.00000    1.000000    
     13 O     c    0.925336 *  0.373478 *  0.229923 *  -2.00000    1.000000    
     14 O     c    0.279556 *  0.373478 *  0.729923 *  -2.00000    1.000000    
     15 O     c    0.523739 *  0.873478 *  0.597374 *  -2.00000    1.000000    
     16 O     c    0.023739 *  0.373478 *  0.524231 *  -2.00000    1.000000    
     17 O     c    0.636361 *  0.373478 *  0.824621 *  -2.00000    1.000000    
     18 O     c    0.181152 *  0.373478 *  0.024231 *  -2.00000    1.000000    
     19 O     c    0.568530 *  0.373478 *  0.324621 *  -2.00000    1.000000    
     20 O     c    0.871249 *  0.373478 *  0.935553 *  -2.00000    1.000000    
     21 O     c    0.425335 *  0.873478 *  0.891682 *  -2.00000    1.000000    
     22 O     c    0.779556 *  0.873478 *  0.391682 *  -2.00000    1.000000    
     23 O     c    0.681152 *  0.873478 *  0.097374 *  -2.00000    1.000000    
     24 O     c    0.068530 *  0.873478 *  0.796984 *  -2.00000    1.000000    
     25 O     c    0.833642 *  0.873478 *  0.686052 *  -2.00000    1.000000    
     26 O     c    0.371249 *  0.873478 *  0.186052 *  -2.00000    1.000000    
     27 O     c    0.136361 *  0.873478 *  0.296984 *  -2.00000    1.000000    
     28 O     c    0.333642 *  0.373478 *  0.435553 *  -2.00000    1.000000    
--------------------------------------------------------------------------------



********************************************************************************
*  General input information                                                   *
********************************************************************************

  Species output for all configurations : 

--------------------------------------------------------------------------------
  Species    Type    Atomic    Atomic    Charge       Radii (Angs)     Library
                     Number     Mass       (e)     Cova   Ionic  VDW   Symbol
--------------------------------------------------------------------------------
    Mg       Core       12      24.31   2.000000   1.100  0.000  1.640          
    Al       Core       13      26.98   3.000000   1.350  0.000  2.050          
    O        Core        8      16.00  -2.000000   0.730  0.000  1.360          
--------------------------------------------------------------------------------


  Lattice summation method               =    Ewald          (3-D)
                                         =    Parry          (2-D)
                                         =    Saunders et al (1-D)
  Accuracy factor for lattice sums       =   12.000


  Analytic derivatives to be used

  Time limit = Infinity

  Maximum range for interatomic potentials =    100000.000000 Angstroms

  General interatomic potentials :

--------------------------------------------------------------------------------
Atom  Types   Potential      Parameter       Value         Units   Cutoffs(Ang)
  1     2                                                            Min /  Max 
--------------------------------------------------------------------------------
O    c Mg   c Lennard       Lennard-Jones A  1.5000000    eV*Ang^m  0.000  6.000
                            Lennard-Jones B  0.0000000    eV*Ang^n  
                            Exponent m        12          None
                            Exponent n         6          None
--------------------------------------------------------------------------------
O    c Al   c Lennard       Lennard-Jones A  1.5000000    eV*Ang^m  0.000  6.000
                            Lennard-Jones B  0.0000000    eV*Ang^n  
                            Exponent m        12          None
                            Exponent n         6          None
--------------------------------------------------------------------------------
O    c O    c Lennard       Lennard-Jones A  1.5000000    eV*Ang^m  0.000  6.000
                            Lennard-Jones B  0.0000000    eV*Ang^n  
                            Exponent m        12          None
                            Exponent n         6          None
--------------------------------------------------------------------------------
Mg   c Mg   c Lennard       Lennard-Jones A  1.5000000    eV*Ang^m  0.000  6.000
                            Lennard-Jones B  0.0000000    eV*Ang^n  
                            Exponent m        12          None
                            Exponent n         6          None
--------------------------------------------------------------------------------
Mg   c Al   c Lennard       Lennard-Jones A  1.5000000    eV*Ang^m  0.000  6.000
                            Lennard-Jones B  0.0000000    eV*Ang^n  
                            Exponent m        12          None
                            Exponent n         6          None
--------------------------------------------------------------------------------
Al   c Al   c Lennard       Lennard-Jones A  1.5000000    eV*Ang^m  0.000  6.000
                            Lennard-Jones B  0.0000000    eV*Ang^n  
                            Exponent m        12          None
                            Exponent n         6          None
--------------------------------------------------------------------------------
O    c Mg   c Buckingham    Buckingham A     1428.5000    eV        0.000  7.000
                            Buckingham rho  0.29450000    Ang       
                            Buckingham C     0.0000000    eV*Ang^6  
--------------------------------------------------------------------------------
O    c Al   c Buckingham    Buckingham A     1114.9000    eV        0.000  7.000
                            Buckingham rho  0.31180000    Ang       
                            Buckingham C     0.0000000    eV*Ang^6  
--------------------------------------------------------------------------------
O    c O    c Buckingham    Buckingham A     2023.8000    eV        0.000  7.000
                            Buckingham rho  0.26740000    Ang       
                            Buckingham C     0.0000000    eV*Ang^6  
--------------------------------------------------------------------------------

********************************************************************************
*  Output for configuration   1                                                *
********************************************************************************


  Components of enthalpy : 

--------------------------------------------------------------------------------
  Interatomic potentials     =         218.79106709 eV    
  Monopole - monopole (real) =        -506.12338008 eV    
  Monopole - monopole (recip)=        -493.14793908 eV    
  Monopole - monopole (total)=        -999.27131916 eV    
  Pressure*volume            =         125.49204760 eV    
--------------------------------------------------------------------------------
  Total lattice enthalpy     =        -654.98820447 eV    
--------------------------------------------------------------------------------
  Total lattice enthalpy     =          -63196.3493 kJ/(mole unit cells)
--------------------------------------------------------------------------------


  Number of variables =       81

  Maximum number of calculations  =           850
  Maximum Hessian update interval =            10
  Maximum step size               =   1.000000000
  Maximum parameter tolerance     =   0.000010000
  Maximum function  tolerance     =   0.000010000
  Maximum gradient  tolerance     =   0.001000000
  Maximum gradient  component     =   0.010000000

  Conjugate gradient optimiser to be used

  Lower half triangular hessian to be used

  Minimiser to switch to RFO
  When gradient norm is less than     0.010000

  Start of bulk optimisation :

  Cycle:      0 Energy:      -654.988204  Gnorm:      0.004054  CPU:    0.027
  ** Hessian has required structure
  Cycle:      1 Energy:      -654.988219  Gnorm:      0.000001  CPU:    0.109
  ** Hessian has required structure


  **** Optimisation achieved ****


  Final enthalpy =    -654.98821912 eV      
  Final Gnorm    =       0.00000000

  Components of enthalpy : 

--------------------------------------------------------------------------------
  Interatomic potentials     =         218.76766075 eV    
  Monopole - monopole (real) =        -506.10015714 eV    
  Monopole - monopole (recip)=        -493.14777033 eV    
  Monopole - monopole (total)=        -999.24792747 eV    
  Pressure*volume            =         125.49204760 eV    
--------------------------------------------------------------------------------
  Total lattice enthalpy     =        -654.98821912 eV    
--------------------------------------------------------------------------------
  Total lattice enthalpy     =          -63196.3507 kJ/(mole unit cells)
--------------------------------------------------------------------------------

  Final fractional coordinates of atoms :

--------------------------------------------------------------------------------
   No.  Atomic        x           y          z          Radius
        Label       (Frac)      (Frac)     (Frac)       (Angs) 
--------------------------------------------------------------------------------
     1  Mg    c     0.707641    0.373478    0.562539    0.000000
     2  Mg    c     0.497318    0.373478    0.062539    0.000000
     3  Mg    c     0.207641    0.873478    0.559086    0.000000
     4  Mg    c     0.997318    0.873478    0.059086    0.000000
     5  Al    c     0.965926    0.373478    0.732680    0.000000
     6  Al    c     0.239033    0.373478    0.232680    0.000000
     7  Al    c     0.736670    0.373478    0.233959    0.000000
     8  Al    c     0.468289    0.373478    0.733959    0.000000
     9  Al    c     0.739033    0.873478    0.888945    0.000000
    10  Al    c     0.968289    0.873478    0.387666    0.000000
    11  Al    c     0.465926    0.873478    0.388945    0.000000
    12  Al    c     0.236670    0.873478    0.887666    0.000000
    13  O     c     0.925393    0.373478    0.229941    0.000000
    14  O     c     0.279566    0.373478    0.729941    0.000000
    15  O     c     0.523798    0.873478    0.597375    0.000000
    16  O     c     0.023798    0.373478    0.524251    0.000000
    17  O     c     0.636410    0.373478    0.824601    0.000000
    18  O     c     0.181161    0.373478    0.024251    0.000000
    19  O     c     0.568549    0.373478    0.324601    0.000000
    20  O     c     0.871274    0.373478    0.935593    0.000000
    21  O     c     0.425393    0.873478    0.891684    0.000000
    22  O     c     0.779566    0.873478    0.391684    0.000000
    23  O     c     0.681161    0.873478    0.097375    0.000000
    24  O     c     0.068549    0.873478    0.797024    0.000000
    25  O     c     0.833685    0.873478    0.686033    0.000000
    26  O     c     0.371274    0.873478    0.186033    0.000000
    27  O     c     0.136410    0.873478    0.297024    0.000000
    28  O     c     0.333685    0.373478    0.435593    0.000000
--------------------------------------------------------------------------------

  Final internal derivatives :

--------------------------------------------------------------------------------
   No.  Atomic          a             b             c           Radius
        Label          (eV)          (eV)          (eV)        (eV/Angs)
--------------------------------------------------------------------------------
      1 Mg    c       0.000000      0.000000      0.000000      0.000000
      2 Mg    c      -0.000000     -0.000000     -0.000000      0.000000
      3 Mg    c       0.000000     -0.000000      0.000000      0.000000
      4 Mg    c      -0.000000     -0.000000      0.000000      0.000000
      5 Al    c      -0.000000     -0.000000      0.000000      0.000000
      6 Al    c       0.000000      0.000000      0.000000      0.000000
      7 Al    c       0.000000     -0.000000      0.000000      0.000000
      8 Al    c      -0.000000     -0.000000      0.000000      0.000000
      9 Al    c       0.000000     -0.000000     -0.000000      0.000000
     10 Al    c      -0.000000     -0.000000     -0.000000      0.000000
     11 Al    c      -0.000000     -0.000000     -0.000000      0.000000
     12 Al    c       0.000000      0.000000     -0.000000      0.000000
     13 O     c       0.000000      0.000000      0.000000      0.000000
     14 O     c      -0.000000      0.000000      0.000000      0.000000
     15 O     c      -0.000000      0.000000      0.000000      0.000000
     16 O     c      -0.000000      0.000000     -0.000000      0.000000
     17 O     c      -0.000000      0.000000      0.000000      0.000000
     18 O     c       0.000000     -0.000000     -0.000000      0.000000
     19 O     c       0.000000      0.000000      0.000000      0.000000
     20 O     c      -0.000000     -0.000000     -0.000000      0.000000
     21 O     c       0.000000     -0.000000     -0.000000      0.000000
     22 O     c      -0.000000     -0.000000     -0.000000      0.000000
     23 O     c       0.000000      0.000000      0.000000      0.000000
     24 O     c       0.000000     -0.000000     -0.000000      0.000000
     25 O     c       0.000000      0.000000      0.000000      0.000000
     26 O     c      -0.000000      0.000000      0.000000      0.000000
     27 O     c      -0.000000     -0.000000     -0.000000      0.000000
     28 O     c       0.000000      0.000000     -0.000000      0.000000
--------------------------------------------------------------------------------
  Maximum abs         0.000000      0.000000      0.000000      0.000000
--------------------------------------------------------------------------------


  Time to end of optimisation =       0.1599 seconds


  Peak dynamic memory used =       2.01 MB 


  Timing analysis for GULP :

--------------------------------------------------------------------------------
  Task / Subroutine                                          Time (Seconds)
--------------------------------------------------------------------------------
  Calculation of reciprocal space energy and derivatives          0.0369
  Calculation of real space energy and derivatives                0.0834
  Calculation and manipulation of Hessian matrix                  0.0279
--------------------------------------------------------------------------------
  Total CPU time                                                  0.1600
--------------------------------------------------------------------------------


  Job Finished at 12:51.23 10th June       2024                               

