********************************************************************************
*                       GENERAL UTILITY LATTICE PROGRAM                        *
*                                 Julian Gale                                  *
*                       Curtin Institute for Computation                       *
*                    School of Molecular and Life Sciences                     *
*                    Curtin University, Western Australia                      *
********************************************************************************
* Version = 6.0.0 * Last modified =  12th July 2021                            *
********************************************************************************
*  optimise     - perform optimisation run                                     *
*  conv         - constant volume calculation                                  *
*  nosymmetry   - turn off symmetry after initial structure generation         *
*  conjugate    - use conjugate gradients minimiser                            *
********************************************************************************

  Job Started  at 12:51.18 10th June       2024                               

  Number of CPUs =     1


  Total number of configurations input =      1

********************************************************************************
*  Input for Configuration =   1                                               *
********************************************************************************

  Formula = Mg4Al8O16                                                   

  Number of irreducible atoms/shells =      28


  Total number atoms/shells =      28

  Dimensionality = 3               :  Bulk   



  Cartesian lattice vectors (Angstroms) :

        7.997956    0.000000    0.000000
        0.106115    9.380281    0.000000
        0.000000    0.000000    2.681995

  Cell parameters (Angstroms/Degrees):

  a =       7.9980    alpha =  90.0000
  b =       9.3809    beta  =  90.0000
  c =       2.6820    gamma =  89.3519

  Initial cell volume =         201.211511 Angs**3

  Temperature of configuration =   0.00     K 

  Pressure of configuration =       100.000 GPa 

  Fractional coordinates of asymmetric unit :

--------------------------------------------------------------------------------
   No.  Atomic       x           y          z         Charge      Occupancy
        Label      (Frac)      (Frac)     (Frac)        (e)         (Frac)  
--------------------------------------------------------------------------------
      1 Mg    c    0.732425    0.737274    0.983734     2.00000    1.000000    
      2 Mg    c    0.061919 *  0.704770 *  0.983734 *   2.00000    1.000000    
      3 Mg    c    0.569186 *  0.987666 *  0.483734 *   2.00000    1.000000    
      4 Mg    c    0.070469 *  0.198456 *  0.483734 *   2.00000    1.000000    
      5 Al    c    0.899332 *  0.460536 *  0.483734 *   3.00000    1.000000    
      6 Al    c    0.401065 *  0.228947 *  0.483734 *   3.00000    1.000000    
      7 Al    c    0.392573 *  0.726482 *  0.483734 *   3.00000    1.000000    
      8 Al    c    0.897326 *  0.960732 *  0.483734 *   3.00000    1.000000    
      9 Al    c    0.748598 *  0.227198 *  0.983734 *   3.00000    1.000000    
     10 Al    c    0.236671 *  0.460895 *  0.983734 *   3.00000    1.000000    
     11 Al    c    0.580137 *  0.493856 *  0.983734 *   3.00000    1.000000    
     12 Al    c    0.245249 *  0.956753 *  0.983734 *   3.00000    1.000000    
     13 O     c    0.947579 *  0.328204 *  0.983734 *  -2.00000    1.000000    
     14 O     c    0.538300 *  0.178419 *  0.983734 *  -2.00000    1.000000    
     15 O     c    0.456321 *  0.852393 *  0.983734 *  -2.00000    1.000000    
     16 O     c    0.909851 *  0.778350 *  0.483734 *  -2.00000    1.000000    
     17 O     c    0.740064 *  0.939772 *  0.983734 *  -2.00000    1.000000    
     18 O     c    0.104045 *  0.513884 *  0.483734 *  -2.00000    1.000000    
     19 O     c    0.821762 *  0.549564 *  0.983734 *  -2.00000    1.000000    
     20 O     c    0.318454 *  0.058673 *  0.483734 *  -2.00000    1.000000    
     21 O     c    0.245041 *  0.274055 *  0.983734 *  -2.00000    1.000000    
     22 O     c    0.685958 *  0.369794 *  0.483734 *  -2.00000    1.000000    
     23 O     c    0.202711 *  0.829819 *  0.483734 *  -2.00000    1.000000    
     24 O     c    0.581817 *  0.632166 *  0.483734 *  -2.00000    1.000000    
     25 O     c    0.041749 *  0.019728 *  0.983734 *  -2.00000    1.000000    
     26 O     c    0.321778 *  0.626350 *  0.983734 *  -2.00000    1.000000    
     27 O     c    0.818819 *  0.138090 *  0.483734 *  -2.00000    1.000000    
     28 O     c    0.410706 *  0.420779 *  0.483734 *  -2.00000    1.000000    
--------------------------------------------------------------------------------



********************************************************************************
*  General input information                                                   *
********************************************************************************

  Species output for all configurations : 

--------------------------------------------------------------------------------
  Species    Type    Atomic    Atomic    Charge       Radii (Angs)     Library
                     Number     Mass       (e)     Cova   Ionic  VDW   Symbol
--------------------------------------------------------------------------------
    Mg       Core       12      24.31   2.000000   1.100  0.000  1.640          
    Al       Core       13      26.98   3.000000   1.350  0.000  2.050          
    O        Core        8      16.00  -2.000000   0.730  0.000  1.360          
--------------------------------------------------------------------------------


  Lattice summation method               =    Ewald          (3-D)
                                         =    Parry          (2-D)
                                         =    Saunders et al (1-D)
  Accuracy factor for lattice sums       =   12.000


  Analytic derivatives to be used

  Time limit = Infinity

  Maximum range for interatomic potentials =    100000.000000 Angstroms

  General interatomic potentials :

--------------------------------------------------------------------------------
Atom  Types   Potential      Parameter       Value         Units   Cutoffs(Ang)
  1     2                                                            Min /  Max 
--------------------------------------------------------------------------------
O    c Mg   c Lennard       Lennard-Jones A  1.5000000    eV*Ang^m  0.000  6.000
                            Lennard-Jones B  0.0000000    eV*Ang^n  
                            Exponent m        12          None
                            Exponent n         6          None
--------------------------------------------------------------------------------
O    c Al   c Lennard       Lennard-Jones A  1.5000000    eV*Ang^m  0.000  6.000
                            Lennard-Jones B  0.0000000    eV*Ang^n  
                            Exponent m        12          None
                            Exponent n         6          None
--------------------------------------------------------------------------------
O    c O    c Lennard       Lennard-Jones A  1.5000000    eV*Ang^m  0.000  6.000
                            Lennard-Jones B  0.0000000    eV*Ang^n  
                            Exponent m        12          None
                            Exponent n         6          None
--------------------------------------------------------------------------------
Mg   c Mg   c Lennard       Lennard-Jones A  1.5000000    eV*Ang^m  0.000  6.000
                            Lennard-Jones B  0.0000000    eV*Ang^n  
                            Exponent m        12          None
                            Exponent n         6          None
--------------------------------------------------------------------------------
Mg   c Al   c Lennard       Lennard-Jones A  1.5000000    eV*Ang^m  0.000  6.000
                            Lennard-Jones B  0.0000000    eV*Ang^n  
                            Exponent m        12          None
                            Exponent n         6          None
--------------------------------------------------------------------------------
Al   c Al   c Lennard       Lennard-Jones A  1.5000000    eV*Ang^m  0.000  6.000
                            Lennard-Jones B  0.0000000    eV*Ang^n  
                            Exponent m        12          None
                            Exponent n         6          None
--------------------------------------------------------------------------------
O    c Mg   c Buckingham    Buckingham A     1428.5000    eV        0.000  7.000
                            Buckingham rho  0.29450000    Ang       
                            Buckingham C     0.0000000    eV*Ang^6  
--------------------------------------------------------------------------------
O    c Al   c Buckingham    Buckingham A     1114.9000    eV        0.000  7.000
                            Buckingham rho  0.31180000    Ang       
                            Buckingham C     0.0000000    eV*Ang^6  
--------------------------------------------------------------------------------
O    c O    c Buckingham    Buckingham A     2023.8000    eV        0.000  7.000
                            Buckingham rho  0.26740000    Ang       
                            Buckingham C     0.0000000    eV*Ang^6  
--------------------------------------------------------------------------------

********************************************************************************
*  Output for configuration   1                                                *
********************************************************************************


  Components of enthalpy : 

--------------------------------------------------------------------------------
  Interatomic potentials     =         218.03917072 eV    
  Monopole - monopole (real) =        -503.52376600 eV    
  Monopole - monopole (recip)=        -492.94717752 eV    
  Monopole - monopole (total)=        -996.47094353 eV    
  Pressure*volume            =         125.58537787 eV    
--------------------------------------------------------------------------------
  Total lattice enthalpy     =        -652.84639494 eV    
--------------------------------------------------------------------------------
  Total lattice enthalpy     =          -62989.6974 kJ/(mole unit cells)
--------------------------------------------------------------------------------


  Number of variables =       81

  Maximum number of calculations  =           850
  Maximum Hessian update interval =            10
  Maximum step size               =   1.000000000
  Maximum parameter tolerance     =   0.000010000
  Maximum function  tolerance     =   0.000010000
  Maximum gradient  tolerance     =   0.001000000
  Maximum gradient  component     =   0.010000000

  Conjugate gradient optimiser to be used

  Lower half triangular hessian to be used

  Minimiser to switch to RFO
  When gradient norm is less than     0.010000

  Start of bulk optimisation :

  Cycle:      0 Energy:      -652.846395  Gnorm:      0.005560  CPU:    0.027
  ** Hessian has required structure
  Cycle:      1 Energy:      -652.846422  Gnorm:      0.000070  CPU:    0.116
  ** Hessian has required structure


  **** Optimisation achieved ****


  Final enthalpy =    -652.84642165 eV      
  Final Gnorm    =       0.00000005

  Components of enthalpy : 

--------------------------------------------------------------------------------
  Interatomic potentials     =         218.00679215 eV    
  Monopole - monopole (real) =        -503.49198428 eV    
  Monopole - monopole (recip)=        -492.94660738 eV    
  Monopole - monopole (total)=        -996.43859166 eV    
  Pressure*volume            =         125.58537787 eV    
--------------------------------------------------------------------------------
  Total lattice enthalpy     =        -652.84642165 eV    
--------------------------------------------------------------------------------
  Total lattice enthalpy     =          -62989.7000 kJ/(mole unit cells)
--------------------------------------------------------------------------------

  Final fractional coordinates of atoms :

--------------------------------------------------------------------------------
   No.  Atomic        x           y          z          Radius
        Label       (Frac)      (Frac)     (Frac)       (Angs) 
--------------------------------------------------------------------------------
     1  Mg    c     0.732425    0.737274    0.983734    0.000000
     2  Mg    c     0.061947    0.704743    0.983734    0.000000
     3  Mg    c     0.569218    0.987702    0.483734    0.000000
     4  Mg    c     0.070489    0.198416    0.483734    0.000000
     5  Al    c     0.899327    0.460517    0.483734    0.000000
     6  Al    c     0.401082    0.228952    0.483734    0.000000
     7  Al    c     0.392596    0.726522    0.483734    0.000000
     8  Al    c     0.897360    0.960715    0.483734    0.000000
     9  Al    c     0.748604    0.227232    0.983734    0.000000
    10  Al    c     0.236674    0.460890    0.983734    0.000000
    11  Al    c     0.580130    0.493888    0.983734    0.000000
    12  Al    c     0.245277    0.956742    0.983734    0.000000
    13  O     c     0.947634    0.328233    0.983734    0.000000
    14  O     c     0.538315    0.178374    0.983734    0.000000
    15  O     c     0.456320    0.852426    0.983734    0.000000
    16  O     c     0.909849    0.778275    0.483734    0.000000
    17  O     c     0.740081    0.939762    0.983734    0.000000
    18  O     c     0.104038    0.513939    0.483734    0.000000
    19  O     c     0.821633    0.549522    0.983734    0.000000
    20  O     c     0.318460    0.058671    0.483734    0.000000
    21  O     c     0.245057    0.274038    0.983734    0.000000
    22  O     c     0.685942    0.369729    0.483734    0.000000
    23  O     c     0.202680    0.829817    0.483734    0.000000
    24  O     c     0.581826    0.632192    0.483734    0.000000
    25  O     c     0.041754    0.019727    0.983734    0.000000
    26  O     c     0.321804    0.626365    0.983734    0.000000
    27  O     c     0.818891    0.138082    0.483734    0.000000
    28  O     c     0.410706    0.420798    0.483734    0.000000
--------------------------------------------------------------------------------

  Final internal derivatives :

--------------------------------------------------------------------------------
   No.  Atomic          a             b             c           Radius
        Label          (eV)          (eV)          (eV)        (eV/Angs)
--------------------------------------------------------------------------------
      1 Mg    c       0.000000      0.000000      0.000000      0.000000
      2 Mg    c      -0.000000     -0.000001     -0.000000      0.000000
      3 Mg    c       0.000000      0.000000     -0.000000      0.000000
      4 Mg    c      -0.000000     -0.000000      0.000000      0.000000
      5 Al    c      -0.000000     -0.000001      0.000000      0.000000
      6 Al    c      -0.000000      0.000000     -0.000000      0.000000
      7 Al    c      -0.000000      0.000000     -0.000000      0.000000
      8 Al    c       0.000000     -0.000002      0.000000      0.000000
      9 Al    c       0.000001      0.000001     -0.000000      0.000000
     10 Al    c       0.000000      0.000000     -0.000000      0.000000
     11 Al    c       0.000002     -0.000000      0.000000      0.000000
     12 Al    c       0.000000     -0.000000      0.000000      0.000000
     13 O     c       0.000000     -0.000001      0.000000      0.000000
     14 O     c      -0.000000     -0.000000      0.000000      0.000000
     15 O     c      -0.000000      0.000001     -0.000000      0.000000
     16 O     c       0.000000      0.000002     -0.000000      0.000000
     17 O     c       0.000000      0.000000     -0.000000      0.000000
     18 O     c      -0.000000      0.000001      0.000000      0.000000
     19 O     c      -0.000001      0.000000      0.000000      0.000000
     20 O     c       0.000000      0.000000     -0.000000      0.000000
     21 O     c       0.000000      0.000000      0.000000      0.000000
     22 O     c      -0.000001     -0.000000      0.000000      0.000000
     23 O     c       0.000000     -0.000000     -0.000000      0.000000
     24 O     c       0.000000     -0.000001     -0.000000      0.000000
     25 O     c      -0.000000      0.000000     -0.000000      0.000000
     26 O     c      -0.000000     -0.000001      0.000000      0.000000
     27 O     c       0.000000      0.000000     -0.000000      0.000000
     28 O     c      -0.000000      0.000000      0.000000      0.000000
--------------------------------------------------------------------------------
  Maximum abs         0.000002      0.000002      0.000000      0.000000
--------------------------------------------------------------------------------


  Time to end of optimisation =       0.1677 seconds


  Peak dynamic memory used =       2.01 MB 


  Timing analysis for GULP :

--------------------------------------------------------------------------------
  Task / Subroutine                                          Time (Seconds)
--------------------------------------------------------------------------------
  Calculation of reciprocal space energy and derivatives          0.0441
  Calculation of real space energy and derivatives                0.0808
  Calculation and manipulation of Hessian matrix                  0.0309
--------------------------------------------------------------------------------
  Total CPU time                                                  0.1677
--------------------------------------------------------------------------------


  Job Finished at 12:51.18 10th June       2024                               

