********************************************************************************
*                       GENERAL UTILITY LATTICE PROGRAM                        *
*                                 Julian Gale                                  *
*                       Curtin Institute for Computation                       *
*                    School of Molecular and Life Sciences                     *
*                    Curtin University, Western Australia                      *
********************************************************************************
* Version = 6.0.0 * Last modified =  12th July 2021                            *
********************************************************************************
*  optimise     - perform optimisation run                                     *
*  conv         - constant volume calculation                                  *
*  nosymmetry   - turn off symmetry after initial structure generation         *
*  conjugate    - use conjugate gradients minimiser                            *
********************************************************************************

  Job Started  at 12:51.24 10th June       2024                               

  Number of CPUs =     1


  Total number of configurations input =      1

********************************************************************************
*  Input for Configuration =   1                                               *
********************************************************************************

  Formula = Mg4Al8O16                                                   

  Number of irreducible atoms/shells =      28


  Total number atoms/shells =      28

  Dimensionality = 3               :  Bulk   



  Cartesian lattice vectors (Angstroms) :

        9.346157    0.000000    0.000000
        0.000000    2.688367    0.000000
        0.000000    0.000000    8.002181

  Cell parameters (Angstroms/Degrees):

  a =       9.3462    alpha =  90.0000
  b =       2.6884    beta  =  90.0000
  c =       8.0022    gamma =  90.0000

  Initial cell volume =         201.062000 Angs**3

  Temperature of configuration =   0.00     K 

  Pressure of configuration =       100.000 GPa 

  Fractional coordinates of asymmetric unit :

--------------------------------------------------------------------------------
   No.  Atomic       x           y          z         Charge      Occupancy
        Label      (Frac)      (Frac)     (Frac)        (e)         (Frac)  
--------------------------------------------------------------------------------
      1 Mg    c    0.299563    0.299392    0.621108     2.00000    1.000000    
      2 Mg    c    0.089172 *  0.299392 *  0.121108 *   2.00000    1.000000    
      3 Mg    c    0.799563 *  0.799392 *  0.624581 *   2.00000    1.000000    
      4 Mg    c    0.589172 *  0.799392 *  0.124581 *   2.00000    1.000000    
      5 Al    c    0.830901 *  0.299392 *  0.950982 *   3.00000    1.000000    
      6 Al    c    0.557834 *  0.299392 *  0.450982 *   3.00000    1.000000    
      7 Al    c    0.328551 *  0.299392 *  0.949683 *   3.00000    1.000000    
      8 Al    c    0.060184 *  0.299392 *  0.449683 *   3.00000    1.000000    
      9 Al    c    0.057834 *  0.799392 *  0.794707 *   3.00000    1.000000    
     10 Al    c    0.330901 *  0.799392 *  0.294707 *   3.00000    1.000000    
     11 Al    c    0.828551 *  0.799392 *  0.296005 *   3.00000    1.000000    
     12 Al    c    0.560184 *  0.799392 *  0.796005 *   3.00000    1.000000    
     13 O     c    0.615661 *  0.299392 *  0.659416 *  -2.00000    1.000000    
     14 O     c    0.871478 *  0.299392 *  0.453724 *  -2.00000    1.000000    
     15 O     c    0.517257 *  0.299392 *  0.953724 *  -2.00000    1.000000    
     16 O     c    0.160452 *  0.299392 *  0.859026 *  -2.00000    1.000000    
     17 O     c    0.463172 *  0.299392 *  0.248094 *  -2.00000    1.000000    
     18 O     c    0.228283 *  0.299392 *  0.359026 *  -2.00000    1.000000    
     19 O     c    0.773074 *  0.299392 *  0.159416 *  -2.00000    1.000000    
     20 O     c    0.925564 *  0.299392 *  0.748094 *  -2.00000    1.000000    
     21 O     c    0.017257 *  0.799392 *  0.291965 *  -2.00000    1.000000    
     22 O     c    0.371478 *  0.799392 *  0.791965 *  -2.00000    1.000000    
     23 O     c    0.115661 *  0.799392 *  0.586273 *  -2.00000    1.000000    
     24 O     c    0.728283 *  0.799392 *  0.886663 *  -2.00000    1.000000    
     25 O     c    0.273074 *  0.799392 *  0.086273 *  -2.00000    1.000000    
     26 O     c    0.660452 *  0.799392 *  0.386663 *  -2.00000    1.000000    
     27 O     c    0.963172 *  0.799392 *  0.997595 *  -2.00000    1.000000    
     28 O     c    0.425564 *  0.799392 *  0.497595 *  -2.00000    1.000000    
--------------------------------------------------------------------------------



********************************************************************************
*  General input information                                                   *
********************************************************************************

  Species output for all configurations : 

--------------------------------------------------------------------------------
  Species    Type    Atomic    Atomic    Charge       Radii (Angs)     Library
                     Number     Mass       (e)     Cova   Ionic  VDW   Symbol
--------------------------------------------------------------------------------
    Mg       Core       12      24.31   2.000000   1.100  0.000  1.640          
    Al       Core       13      26.98   3.000000   1.350  0.000  2.050          
    O        Core        8      16.00  -2.000000   0.730  0.000  1.360          
--------------------------------------------------------------------------------


  Lattice summation method               =    Ewald          (3-D)
                                         =    Parry          (2-D)
                                         =    Saunders et al (1-D)
  Accuracy factor for lattice sums       =   12.000


  Analytic derivatives to be used

  Time limit = Infinity

  Maximum range for interatomic potentials =    100000.000000 Angstroms

  General interatomic potentials :

--------------------------------------------------------------------------------
Atom  Types   Potential      Parameter       Value         Units   Cutoffs(Ang)
  1     2                                                            Min /  Max 
--------------------------------------------------------------------------------
O    c Mg   c Lennard       Lennard-Jones A  1.5000000    eV*Ang^m  0.000  6.000
                            Lennard-Jones B  0.0000000    eV*Ang^n  
                            Exponent m        12          None
                            Exponent n         6          None
--------------------------------------------------------------------------------
O    c Al   c Lennard       Lennard-Jones A  1.5000000    eV*Ang^m  0.000  6.000
                            Lennard-Jones B  0.0000000    eV*Ang^n  
                            Exponent m        12          None
                            Exponent n         6          None
--------------------------------------------------------------------------------
O    c O    c Lennard       Lennard-Jones A  1.5000000    eV*Ang^m  0.000  6.000
                            Lennard-Jones B  0.0000000    eV*Ang^n  
                            Exponent m        12          None
                            Exponent n         6          None
--------------------------------------------------------------------------------
Mg   c Mg   c Lennard       Lennard-Jones A  1.5000000    eV*Ang^m  0.000  6.000
                            Lennard-Jones B  0.0000000    eV*Ang^n  
                            Exponent m        12          None
                            Exponent n         6          None
--------------------------------------------------------------------------------
Mg   c Al   c Lennard       Lennard-Jones A  1.5000000    eV*Ang^m  0.000  6.000
                            Lennard-Jones B  0.0000000    eV*Ang^n  
                            Exponent m        12          None
                            Exponent n         6          None
--------------------------------------------------------------------------------
Al   c Al   c Lennard       Lennard-Jones A  1.5000000    eV*Ang^m  0.000  6.000
                            Lennard-Jones B  0.0000000    eV*Ang^n  
                            Exponent m        12          None
                            Exponent n         6          None
--------------------------------------------------------------------------------
O    c Mg   c Buckingham    Buckingham A     1428.5000    eV        0.000  7.000
                            Buckingham rho  0.29450000    Ang       
                            Buckingham C     0.0000000    eV*Ang^6  
--------------------------------------------------------------------------------
O    c Al   c Buckingham    Buckingham A     1114.9000    eV        0.000  7.000
                            Buckingham rho  0.31180000    Ang       
                            Buckingham C     0.0000000    eV*Ang^6  
--------------------------------------------------------------------------------
O    c O    c Buckingham    Buckingham A     2023.8000    eV        0.000  7.000
                            Buckingham rho  0.26740000    Ang       
                            Buckingham C     0.0000000    eV*Ang^6  
--------------------------------------------------------------------------------

********************************************************************************
*  Output for configuration   1                                                *
********************************************************************************


  Components of enthalpy : 

--------------------------------------------------------------------------------
  Interatomic potentials     =         218.79106855 eV    
  Monopole - monopole (real) =        -506.12341257 eV    
  Monopole - monopole (recip)=        -493.14792145 eV    
  Monopole - monopole (total)=        -999.27133402 eV    
  Pressure*volume            =         125.49206103 eV    
--------------------------------------------------------------------------------
  Total lattice enthalpy     =        -654.98820444 eV    
--------------------------------------------------------------------------------
  Total lattice enthalpy     =          -63196.3493 kJ/(mole unit cells)
--------------------------------------------------------------------------------


  Number of variables =       81

  Maximum number of calculations  =           850
  Maximum Hessian update interval =            10
  Maximum step size               =   1.000000000
  Maximum parameter tolerance     =   0.000010000
  Maximum function  tolerance     =   0.000010000
  Maximum gradient  tolerance     =   0.001000000
  Maximum gradient  component     =   0.010000000

  Conjugate gradient optimiser to be used

  Lower half triangular hessian to be used

  Minimiser to switch to RFO
  When gradient norm is less than     0.010000

  Start of bulk optimisation :

  Cycle:      0 Energy:      -654.988204  Gnorm:      0.004060  CPU:    0.029
  ** Hessian has required structure
  Cycle:      1 Energy:      -654.988219  Gnorm:      0.000001  CPU:    0.113
  ** Hessian has required structure


  **** Optimisation achieved ****


  Final enthalpy =    -654.98821915 eV      
  Final Gnorm    =       0.00000000

  Components of enthalpy : 

--------------------------------------------------------------------------------
  Interatomic potentials     =         218.76761407 eV    
  Monopole - monopole (real) =        -506.10014149 eV    
  Monopole - monopole (recip)=        -493.14775276 eV    
  Monopole - monopole (total)=        -999.24789425 eV    
  Pressure*volume            =         125.49206103 eV    
--------------------------------------------------------------------------------
  Total lattice enthalpy     =        -654.98821915 eV    
--------------------------------------------------------------------------------
  Total lattice enthalpy     =          -63196.3507 kJ/(mole unit cells)
--------------------------------------------------------------------------------

  Final fractional coordinates of atoms :

--------------------------------------------------------------------------------
   No.  Atomic        x           y          z          Radius
        Label       (Frac)      (Frac)     (Frac)       (Angs) 
--------------------------------------------------------------------------------
     1  Mg    c     0.299563    0.299392    0.621108    0.000000
     2  Mg    c     0.089240    0.299392    0.121108    0.000000
     3  Mg    c     0.799563    0.799392    0.624561    0.000000
     4  Mg    c     0.589240    0.799392    0.124561    0.000000
     5  Al    c     0.830955    0.299392    0.950967    0.000000
     6  Al    c     0.557848    0.299392    0.450967    0.000000
     7  Al    c     0.328592    0.299392    0.949688    0.000000
     8  Al    c     0.060211    0.299392    0.449688    0.000000
     9  Al    c     0.057848    0.799392    0.794702    0.000000
    10  Al    c     0.330955    0.799392    0.294702    0.000000
    11  Al    c     0.828592    0.799392    0.295981    0.000000
    12  Al    c     0.560211    0.799392    0.795981    0.000000
    13  O     c     0.615720    0.299392    0.659396    0.000000
    14  O     c     0.871488    0.299392    0.453706    0.000000
    15  O     c     0.517315    0.299392    0.953706    0.000000
    16  O     c     0.160471    0.299392    0.859046    0.000000
    17  O     c     0.463196    0.299392    0.248054    0.000000
    18  O     c     0.228332    0.299392    0.359046    0.000000
    19  O     c     0.773083    0.299392    0.159396    0.000000
    20  O     c     0.925607    0.299392    0.748054    0.000000
    21  O     c     0.017315    0.799392    0.291963    0.000000
    22  O     c     0.371488    0.799392    0.791963    0.000000
    23  O     c     0.115720    0.799392    0.586272    0.000000
    24  O     c     0.728332    0.799392    0.886623    0.000000
    25  O     c     0.273083    0.799392    0.086272    0.000000
    26  O     c     0.660471    0.799392    0.386623    0.000000
    27  O     c     0.963196    0.799392    0.997614    0.000000
    28  O     c     0.425607    0.799392    0.497614    0.000000
--------------------------------------------------------------------------------

  Final internal derivatives :

--------------------------------------------------------------------------------
   No.  Atomic          a             b             c           Radius
        Label          (eV)          (eV)          (eV)        (eV/Angs)
--------------------------------------------------------------------------------
      1 Mg    c       0.000000      0.000000      0.000000      0.000000
      2 Mg    c      -0.000000      0.000000      0.000000      0.000000
      3 Mg    c       0.000000     -0.000000     -0.000000      0.000000
      4 Mg    c      -0.000000     -0.000000     -0.000000      0.000000
      5 Al    c       0.000000      0.000000     -0.000000      0.000000
      6 Al    c      -0.000000     -0.000000     -0.000000      0.000000
      7 Al    c       0.000000      0.000000     -0.000000      0.000000
      8 Al    c      -0.000000      0.000000     -0.000000      0.000000
      9 Al    c      -0.000000      0.000000      0.000000      0.000000
     10 Al    c       0.000000      0.000000      0.000000      0.000000
     11 Al    c       0.000000      0.000000      0.000000      0.000000
     12 Al    c      -0.000000     -0.000000      0.000000      0.000000
     13 O     c      -0.000000      0.000000      0.000000      0.000000
     14 O     c      -0.000000     -0.000000     -0.000000      0.000000
     15 O     c       0.000000      0.000000     -0.000000      0.000000
     16 O     c       0.000000     -0.000000     -0.000000      0.000000
     17 O     c      -0.000000     -0.000000      0.000000      0.000000
     18 O     c      -0.000000     -0.000000     -0.000000      0.000000
     19 O     c       0.000000     -0.000000      0.000000      0.000000
     20 O     c       0.000000      0.000000      0.000000      0.000000
     21 O     c       0.000000      0.000000      0.000000      0.000000
     22 O     c      -0.000000      0.000000      0.000000      0.000000
     23 O     c      -0.000000     -0.000000     -0.000000      0.000000
     24 O     c      -0.000000     -0.000000      0.000000      0.000000
     25 O     c       0.000000     -0.000000     -0.000000      0.000000
     26 O     c       0.000000      0.000000      0.000000      0.000000
     27 O     c      -0.000000     -0.000000     -0.000000      0.000000
     28 O     c       0.000000     -0.000000     -0.000000      0.000000
--------------------------------------------------------------------------------
  Maximum abs         0.000000      0.000000      0.000000      0.000000
--------------------------------------------------------------------------------


  Time to end of optimisation =       0.1640 seconds


  Peak dynamic memory used =       2.01 MB 


  Timing analysis for GULP :

--------------------------------------------------------------------------------
  Task / Subroutine                                          Time (Seconds)
--------------------------------------------------------------------------------
  Calculation of reciprocal space energy and derivatives          0.0368
  Calculation of real space energy and derivatives                0.0855
  Calculation and manipulation of Hessian matrix                  0.0281
--------------------------------------------------------------------------------
  Total CPU time                                                  0.1640
--------------------------------------------------------------------------------


  Job Finished at 12:51.24 10th June       2024                               

