********************************************************************************
*                       GENERAL UTILITY LATTICE PROGRAM                        *
*                                 Julian Gale                                  *
*                       Curtin Institute for Computation                       *
*                    School of Molecular and Life Sciences                     *
*                    Curtin University, Western Australia                      *
********************************************************************************
* Version = 6.0.0 * Last modified =  12th July 2021                            *
********************************************************************************
*  optimise     - perform optimisation run                                     *
*  conv         - constant volume calculation                                  *
*  nosymmetry   - turn off symmetry after initial structure generation         *
*  conjugate    - use conjugate gradients minimiser                            *
********************************************************************************

  Job Started  at 12:51.18 10th June       2024                               

  Number of CPUs =     1


  Total number of configurations input =      1

********************************************************************************
*  Input for Configuration =   1                                               *
********************************************************************************

  Formula = Mg4Al8O16                                                   

  Number of irreducible atoms/shells =      28


  Total number atoms/shells =      28

  Dimensionality = 3               :  Bulk   



  Cartesian lattice vectors (Angstroms) :

        7.997956    0.000000    0.000000
        0.106115    9.380281    0.000000
        0.000000    0.000000    2.681995

  Cell parameters (Angstroms/Degrees):

  a =       7.9980    alpha =  90.0000
  b =       9.3809    beta  =  90.0000
  c =       2.6820    gamma =  89.3519

  Initial cell volume =         201.211511 Angs**3

  Temperature of configuration =   0.00     K 

  Pressure of configuration =       100.000 GPa 

  Fractional coordinates of asymmetric unit :

--------------------------------------------------------------------------------
   No.  Atomic       x           y          z         Charge      Occupancy
        Label      (Frac)      (Frac)     (Frac)        (e)         (Frac)  
--------------------------------------------------------------------------------
      1 Mg    c    0.727957    0.737053    0.987247     2.00000    1.000000    
      2 Mg    c    0.057451 *  0.704549 *  0.987247 *   2.00000    1.000000    
      3 Mg    c    0.564718 *  0.987445 *  0.487247 *   2.00000    1.000000    
      4 Mg    c    0.066001 *  0.198235 *  0.487247 *   2.00000    1.000000    
      5 Al    c    0.894864 *  0.460315 *  0.487247 *   3.00000    1.000000    
      6 Al    c    0.396597 *  0.228726 *  0.487247 *   3.00000    1.000000    
      7 Al    c    0.388105 *  0.726261 *  0.487247 *   3.00000    1.000000    
      8 Al    c    0.892858 *  0.960512 *  0.487247 *   3.00000    1.000000    
      9 Al    c    0.744130 *  0.226977 *  0.987247 *   3.00000    1.000000    
     10 Al    c    0.232203 *  0.460674 *  0.987247 *   3.00000    1.000000    
     11 Al    c    0.575669 *  0.493635 *  0.987247 *   3.00000    1.000000    
     12 Al    c    0.240781 *  0.956532 *  0.987247 *   3.00000    1.000000    
     13 O     c    0.943111 *  0.327983 *  0.987247 *  -2.00000    1.000000    
     14 O     c    0.533832 *  0.178198 *  0.987247 *  -2.00000    1.000000    
     15 O     c    0.451853 *  0.852172 *  0.987247 *  -2.00000    1.000000    
     16 O     c    0.905383 *  0.778129 *  0.487247 *  -2.00000    1.000000    
     17 O     c    0.735596 *  0.939551 *  0.987247 *  -2.00000    1.000000    
     18 O     c    0.099577 *  0.513663 *  0.487247 *  -2.00000    1.000000    
     19 O     c    0.817294 *  0.549343 *  0.987247 *  -2.00000    1.000000    
     20 O     c    0.313986 *  0.058452 *  0.487247 *  -2.00000    1.000000    
     21 O     c    0.240573 *  0.273834 *  0.987247 *  -2.00000    1.000000    
     22 O     c    0.681490 *  0.369573 *  0.487247 *  -2.00000    1.000000    
     23 O     c    0.198243 *  0.829598 *  0.487247 *  -2.00000    1.000000    
     24 O     c    0.577349 *  0.631945 *  0.487247 *  -2.00000    1.000000    
     25 O     c    0.037281 *  0.019507 *  0.987247 *  -2.00000    1.000000    
     26 O     c    0.317310 *  0.626129 *  0.987247 *  -2.00000    1.000000    
     27 O     c    0.814351 *  0.137869 *  0.487247 *  -2.00000    1.000000    
     28 O     c    0.406237 *  0.420558 *  0.487247 *  -2.00000    1.000000    
--------------------------------------------------------------------------------



********************************************************************************
*  General input information                                                   *
********************************************************************************

  Species output for all configurations : 

--------------------------------------------------------------------------------
  Species    Type    Atomic    Atomic    Charge       Radii (Angs)     Library
                     Number     Mass       (e)     Cova   Ionic  VDW   Symbol
--------------------------------------------------------------------------------
    Mg       Core       12      24.31   2.000000   1.100  0.000  1.640          
    Al       Core       13      26.98   3.000000   1.350  0.000  2.050          
    O        Core        8      16.00  -2.000000   0.730  0.000  1.360          
--------------------------------------------------------------------------------


  Lattice summation method               =    Ewald          (3-D)
                                         =    Parry          (2-D)
                                         =    Saunders et al (1-D)
  Accuracy factor for lattice sums       =   12.000


  Analytic derivatives to be used

  Time limit = Infinity

  Maximum range for interatomic potentials =    100000.000000 Angstroms

  General interatomic potentials :

--------------------------------------------------------------------------------
Atom  Types   Potential      Parameter       Value         Units   Cutoffs(Ang)
  1     2                                                            Min /  Max 
--------------------------------------------------------------------------------
O    c Mg   c Lennard       Lennard-Jones A  1.5000000    eV*Ang^m  0.000  6.000
                            Lennard-Jones B  0.0000000    eV*Ang^n  
                            Exponent m        12          None
                            Exponent n         6          None
--------------------------------------------------------------------------------
O    c Al   c Lennard       Lennard-Jones A  1.5000000    eV*Ang^m  0.000  6.000
                            Lennard-Jones B  0.0000000    eV*Ang^n  
                            Exponent m        12          None
                            Exponent n         6          None
--------------------------------------------------------------------------------
O    c O    c Lennard       Lennard-Jones A  1.5000000    eV*Ang^m  0.000  6.000
                            Lennard-Jones B  0.0000000    eV*Ang^n  
                            Exponent m        12          None
                            Exponent n         6          None
--------------------------------------------------------------------------------
Mg   c Mg   c Lennard       Lennard-Jones A  1.5000000    eV*Ang^m  0.000  6.000
                            Lennard-Jones B  0.0000000    eV*Ang^n  
                            Exponent m        12          None
                            Exponent n         6          None
--------------------------------------------------------------------------------
Mg   c Al   c Lennard       Lennard-Jones A  1.5000000    eV*Ang^m  0.000  6.000
                            Lennard-Jones B  0.0000000    eV*Ang^n  
                            Exponent m        12          None
                            Exponent n         6          None
--------------------------------------------------------------------------------
Al   c Al   c Lennard       Lennard-Jones A  1.5000000    eV*Ang^m  0.000  6.000
                            Lennard-Jones B  0.0000000    eV*Ang^n  
                            Exponent m        12          None
                            Exponent n         6          None
--------------------------------------------------------------------------------
O    c Mg   c Buckingham    Buckingham A     1428.5000    eV        0.000  7.000
                            Buckingham rho  0.29450000    Ang       
                            Buckingham C     0.0000000    eV*Ang^6  
--------------------------------------------------------------------------------
O    c Al   c Buckingham    Buckingham A     1114.9000    eV        0.000  7.000
                            Buckingham rho  0.31180000    Ang       
                            Buckingham C     0.0000000    eV*Ang^6  
--------------------------------------------------------------------------------
O    c O    c Buckingham    Buckingham A     2023.8000    eV        0.000  7.000
                            Buckingham rho  0.26740000    Ang       
                            Buckingham C     0.0000000    eV*Ang^6  
--------------------------------------------------------------------------------

********************************************************************************
*  Output for configuration   1                                                *
********************************************************************************


  Components of enthalpy : 

--------------------------------------------------------------------------------
  Interatomic potentials     =         218.03919101 eV    
  Monopole - monopole (real) =        -503.52379260 eV    
  Monopole - monopole (recip)=        -492.94717124 eV    
  Monopole - monopole (total)=        -996.47096384 eV    
  Pressure*volume            =         125.58537787 eV    
--------------------------------------------------------------------------------
  Total lattice enthalpy     =        -652.84639497 eV    
--------------------------------------------------------------------------------
  Total lattice enthalpy     =          -62989.6974 kJ/(mole unit cells)
--------------------------------------------------------------------------------


  Number of variables =       81

  Maximum number of calculations  =           850
  Maximum Hessian update interval =            10
  Maximum step size               =   1.000000000
  Maximum parameter tolerance     =   0.000010000
  Maximum function  tolerance     =   0.000010000
  Maximum gradient  tolerance     =   0.001000000
  Maximum gradient  component     =   0.010000000

  Conjugate gradient optimiser to be used

  Lower half triangular hessian to be used

  Minimiser to switch to RFO
  When gradient norm is less than     0.010000

  Start of bulk optimisation :

  Cycle:      0 Energy:      -652.846395  Gnorm:      0.005549  CPU:    0.031
  ** Hessian has required structure
  Cycle:      1 Energy:      -652.846422  Gnorm:      0.000070  CPU:    0.118
  ** Hessian has required structure


  **** Optimisation achieved ****


  Final enthalpy =    -652.84642165 eV      
  Final Gnorm    =       0.00000005

  Components of enthalpy : 

--------------------------------------------------------------------------------
  Interatomic potentials     =         218.00679215 eV    
  Monopole - monopole (real) =        -503.49198428 eV    
  Monopole - monopole (recip)=        -492.94660738 eV    
  Monopole - monopole (total)=        -996.43859166 eV    
  Pressure*volume            =         125.58537787 eV    
--------------------------------------------------------------------------------
  Total lattice enthalpy     =        -652.84642165 eV    
--------------------------------------------------------------------------------
  Total lattice enthalpy     =          -62989.7000 kJ/(mole unit cells)
--------------------------------------------------------------------------------

  Final fractional coordinates of atoms :

--------------------------------------------------------------------------------
   No.  Atomic        x           y          z          Radius
        Label       (Frac)      (Frac)     (Frac)       (Angs) 
--------------------------------------------------------------------------------
     1  Mg    c     0.727957    0.737053    0.987247    0.000000
     2  Mg    c     0.057479    0.704522    0.987247    0.000000
     3  Mg    c     0.564750    0.987481    0.487247    0.000000
     4  Mg    c     0.066021    0.198195    0.487247    0.000000
     5  Al    c     0.894859    0.460296    0.487247    0.000000
     6  Al    c     0.396614    0.228731    0.487247    0.000000
     7  Al    c     0.388128    0.726301    0.487247    0.000000
     8  Al    c     0.892892    0.960494    0.487247    0.000000
     9  Al    c     0.744136    0.227011    0.987247    0.000000
    10  Al    c     0.232206    0.460669    0.987247    0.000000
    11  Al    c     0.575662    0.493667    0.987247    0.000000
    12  Al    c     0.240809    0.956521    0.987247    0.000000
    13  O     c     0.943166    0.328012    0.987247    0.000000
    14  O     c     0.533847    0.178153    0.987247    0.000000
    15  O     c     0.451852    0.852205    0.987247    0.000000
    16  O     c     0.905381    0.778054    0.487247    0.000000
    17  O     c     0.735613    0.939541    0.987247    0.000000
    18  O     c     0.099570    0.513718    0.487247    0.000000
    19  O     c     0.817165    0.549301    0.987247    0.000000
    20  O     c     0.313992    0.058450    0.487247    0.000000
    21  O     c     0.240589    0.273817    0.987247    0.000000
    22  O     c     0.681474    0.369508    0.487247    0.000000
    23  O     c     0.198212    0.829596    0.487247    0.000000
    24  O     c     0.577358    0.631971    0.487247    0.000000
    25  O     c     0.037286    0.019506    0.987247    0.000000
    26  O     c     0.317336    0.626144    0.987247    0.000000
    27  O     c     0.814423    0.137861    0.487247    0.000000
    28  O     c     0.406238    0.420577    0.487247    0.000000
--------------------------------------------------------------------------------

  Final internal derivatives :

--------------------------------------------------------------------------------
   No.  Atomic          a             b             c           Radius
        Label          (eV)          (eV)          (eV)        (eV/Angs)
--------------------------------------------------------------------------------
      1 Mg    c       0.000000      0.000000      0.000000      0.000000
      2 Mg    c      -0.000000     -0.000001     -0.000000      0.000000
      3 Mg    c       0.000000      0.000000     -0.000000      0.000000
      4 Mg    c      -0.000000     -0.000000      0.000000      0.000000
      5 Al    c      -0.000000     -0.000001      0.000000      0.000000
      6 Al    c      -0.000000      0.000000      0.000000      0.000000
      7 Al    c      -0.000000      0.000000      0.000000      0.000000
      8 Al    c       0.000000     -0.000001      0.000000      0.000000
      9 Al    c       0.000001      0.000001     -0.000000      0.000000
     10 Al    c       0.000000      0.000000     -0.000000      0.000000
     11 Al    c       0.000002     -0.000000     -0.000000      0.000000
     12 Al    c       0.000000     -0.000000      0.000000      0.000000
     13 O     c       0.000000     -0.000001      0.000000      0.000000
     14 O     c      -0.000000     -0.000000     -0.000000      0.000000
     15 O     c      -0.000000      0.000001     -0.000000      0.000000
     16 O     c       0.000000      0.000002      0.000000      0.000000
     17 O     c       0.000000      0.000000     -0.000000      0.000000
     18 O     c      -0.000000      0.000001     -0.000000      0.000000
     19 O     c      -0.000001      0.000000     -0.000000      0.000000
     20 O     c       0.000000      0.000000     -0.000000      0.000000
     21 O     c       0.000000      0.000000     -0.000000      0.000000
     22 O     c      -0.000001     -0.000000     -0.000000      0.000000
     23 O     c       0.000000     -0.000000     -0.000000      0.000000
     24 O     c       0.000000     -0.000001      0.000000      0.000000
     25 O     c      -0.000000      0.000000     -0.000000      0.000000
     26 O     c      -0.000000     -0.000001     -0.000000      0.000000
     27 O     c       0.000000      0.000000      0.000000      0.000000
     28 O     c      -0.000000      0.000000      0.000000      0.000000
--------------------------------------------------------------------------------
  Maximum abs         0.000002      0.000002      0.000000      0.000000
--------------------------------------------------------------------------------


  Time to end of optimisation =       0.1696 seconds


  Peak dynamic memory used =       2.01 MB 


  Timing analysis for GULP :

--------------------------------------------------------------------------------
  Task / Subroutine                                          Time (Seconds)
--------------------------------------------------------------------------------
  Calculation of reciprocal space energy and derivatives          0.0438
  Calculation of real space energy and derivatives                0.0799
  Calculation and manipulation of Hessian matrix                  0.0297
  Symmetry generation of equivalent positions                     0.0002
--------------------------------------------------------------------------------
  Total CPU time                                                  0.1697
--------------------------------------------------------------------------------


  Job Finished at 12:51.18 10th June       2024                               

