********************************************************************************
*                       GENERAL UTILITY LATTICE PROGRAM                        *
*                                 Julian Gale                                  *
*                       Curtin Institute for Computation                       *
*                    School of Molecular and Life Sciences                     *
*                    Curtin University, Western Australia                      *
********************************************************************************
* Version = 6.0.0 * Last modified =  12th July 2021                            *
********************************************************************************
*  optimise     - perform optimisation run                                     *
*  conv         - constant volume calculation                                  *
*  nosymmetry   - turn off symmetry after initial structure generation         *
*  conjugate    - use conjugate gradients minimiser                            *
********************************************************************************

  Job Started  at 12:51.25 10th June       2024                               

  Number of CPUs =     1


  Total number of configurations input =      1

********************************************************************************
*  Input for Configuration =   1                                               *
********************************************************************************

  Formula = Mg4Al8O16                                                   

  Number of irreducible atoms/shells =      28


  Total number atoms/shells =      28

  Dimensionality = 3               :  Bulk   



  Cartesian lattice vectors (Angstroms) :

        9.346157    0.000000    0.000000
        0.000000    2.688366    0.000000
        0.000000    0.000000    8.002181

  Cell parameters (Angstroms/Degrees):

  a =       9.3462    alpha =  90.0000
  b =       2.6884    beta  =  90.0000
  c =       8.0022    gamma =  90.0000

  Initial cell volume =         201.061925 Angs**3

  Temperature of configuration =   0.00     K 

  Pressure of configuration =       100.000 GPa 

  Fractional coordinates of asymmetric unit :

--------------------------------------------------------------------------------
   No.  Atomic       x           y          z         Charge      Occupancy
        Label      (Frac)      (Frac)     (Frac)        (e)         (Frac)  
--------------------------------------------------------------------------------
      1 Mg    c    0.708788    0.096618    0.559693     2.00000    1.000000    
      2 Mg    c    0.498397 *  0.096618 *  0.059693 *   2.00000    1.000000    
      3 Mg    c    0.208788 *  0.596618 *  0.556220 *   2.00000    1.000000    
      4 Mg    c    0.998397 *  0.596618 *  0.056220 *   2.00000    1.000000    
      5 Al    c    0.967059 *  0.096618 *  0.729819 *   3.00000    1.000000    
      6 Al    c    0.240126 *  0.096618 *  0.229819 *   3.00000    1.000000    
      7 Al    c    0.737776 *  0.096618 *  0.231118 *   3.00000    1.000000    
      8 Al    c    0.469409 *  0.096618 *  0.731117 *   3.00000    1.000000    
      9 Al    c    0.740126 *  0.596618 *  0.886094 *   3.00000    1.000000    
     10 Al    c    0.969409 *  0.596618 *  0.384796 *   3.00000    1.000000    
     11 Al    c    0.467059 *  0.596618 *  0.386094 *   3.00000    1.000000    
     12 Al    c    0.237776 *  0.596618 *  0.884795 *   3.00000    1.000000    
     13 O     c    0.926482 *  0.096618 *  0.227077 *  -2.00000    1.000000    
     14 O     c    0.280703 *  0.096618 *  0.727077 *  -2.00000    1.000000    
     15 O     c    0.524886 *  0.596618 *  0.594528 *  -2.00000    1.000000    
     16 O     c    0.024886 *  0.096618 *  0.521385 *  -2.00000    1.000000    
     17 O     c    0.637508 *  0.096618 *  0.821775 *  -2.00000    1.000000    
     18 O     c    0.182299 *  0.096618 *  0.021385 *  -2.00000    1.000000    
     19 O     c    0.569677 *  0.096618 *  0.321775 *  -2.00000    1.000000    
     20 O     c    0.872397 *  0.096618 *  0.932707 *  -2.00000    1.000000    
     21 O     c    0.426482 *  0.596618 *  0.888836 *  -2.00000    1.000000    
     22 O     c    0.780703 *  0.596618 *  0.388836 *  -2.00000    1.000000    
     23 O     c    0.682299 *  0.596618 *  0.094528 *  -2.00000    1.000000    
     24 O     c    0.069677 *  0.596618 *  0.794138 *  -2.00000    1.000000    
     25 O     c    0.834789 *  0.596618 *  0.683206 *  -2.00000    1.000000    
     26 O     c    0.372396 *  0.596618 *  0.183206 *  -2.00000    1.000000    
     27 O     c    0.137508 *  0.596618 *  0.294138 *  -2.00000    1.000000    
     28 O     c    0.334789 *  0.096618 *  0.432707 *  -2.00000    1.000000    
--------------------------------------------------------------------------------



********************************************************************************
*  General input information                                                   *
********************************************************************************

  Species output for all configurations : 

--------------------------------------------------------------------------------
  Species    Type    Atomic    Atomic    Charge       Radii (Angs)     Library
                     Number     Mass       (e)     Cova   Ionic  VDW   Symbol
--------------------------------------------------------------------------------
    Mg       Core       12      24.31   2.000000   1.100  0.000  1.640          
    Al       Core       13      26.98   3.000000   1.350  0.000  2.050          
    O        Core        8      16.00  -2.000000   0.730  0.000  1.360          
--------------------------------------------------------------------------------


  Lattice summation method               =    Ewald          (3-D)
                                         =    Parry          (2-D)
                                         =    Saunders et al (1-D)
  Accuracy factor for lattice sums       =   12.000


  Analytic derivatives to be used

  Time limit = Infinity

  Maximum range for interatomic potentials =    100000.000000 Angstroms

  General interatomic potentials :

--------------------------------------------------------------------------------
Atom  Types   Potential      Parameter       Value         Units   Cutoffs(Ang)
  1     2                                                            Min /  Max 
--------------------------------------------------------------------------------
O    c Mg   c Lennard       Lennard-Jones A  1.5000000    eV*Ang^m  0.000  6.000
                            Lennard-Jones B  0.0000000    eV*Ang^n  
                            Exponent m        12          None
                            Exponent n         6          None
--------------------------------------------------------------------------------
O    c Al   c Lennard       Lennard-Jones A  1.5000000    eV*Ang^m  0.000  6.000
                            Lennard-Jones B  0.0000000    eV*Ang^n  
                            Exponent m        12          None
                            Exponent n         6          None
--------------------------------------------------------------------------------
O    c O    c Lennard       Lennard-Jones A  1.5000000    eV*Ang^m  0.000  6.000
                            Lennard-Jones B  0.0000000    eV*Ang^n  
                            Exponent m        12          None
                            Exponent n         6          None
--------------------------------------------------------------------------------
Mg   c Mg   c Lennard       Lennard-Jones A  1.5000000    eV*Ang^m  0.000  6.000
                            Lennard-Jones B  0.0000000    eV*Ang^n  
                            Exponent m        12          None
                            Exponent n         6          None
--------------------------------------------------------------------------------
Mg   c Al   c Lennard       Lennard-Jones A  1.5000000    eV*Ang^m  0.000  6.000
                            Lennard-Jones B  0.0000000    eV*Ang^n  
                            Exponent m        12          None
                            Exponent n         6          None
--------------------------------------------------------------------------------
Al   c Al   c Lennard       Lennard-Jones A  1.5000000    eV*Ang^m  0.000  6.000
                            Lennard-Jones B  0.0000000    eV*Ang^n  
                            Exponent m        12          None
                            Exponent n         6          None
--------------------------------------------------------------------------------
O    c Mg   c Buckingham    Buckingham A     1428.5000    eV        0.000  7.000
                            Buckingham rho  0.29450000    Ang       
                            Buckingham C     0.0000000    eV*Ang^6  
--------------------------------------------------------------------------------
O    c Al   c Buckingham    Buckingham A     1114.9000    eV        0.000  7.000
                            Buckingham rho  0.31180000    Ang       
                            Buckingham C     0.0000000    eV*Ang^6  
--------------------------------------------------------------------------------
O    c O    c Buckingham    Buckingham A     2023.8000    eV        0.000  7.000
                            Buckingham rho  0.26740000    Ang       
                            Buckingham C     0.0000000    eV*Ang^6  
--------------------------------------------------------------------------------

********************************************************************************
*  Output for configuration   1                                                *
********************************************************************************


  Components of enthalpy : 

--------------------------------------------------------------------------------
  Interatomic potentials     =         218.79127416 eV    
  Monopole - monopole (real) =        -506.12350974 eV    
  Monopole - monopole (recip)=        -493.14798308 eV    
  Monopole - monopole (total)=        -999.27149282 eV    
  Pressure*volume            =         125.49201435 eV    
--------------------------------------------------------------------------------
  Total lattice enthalpy     =        -654.98820430 eV    
--------------------------------------------------------------------------------
  Total lattice enthalpy     =          -63196.3493 kJ/(mole unit cells)
--------------------------------------------------------------------------------


  Number of variables =       81

  Maximum number of calculations  =           850
  Maximum Hessian update interval =            10
  Maximum step size               =   1.000000000
  Maximum parameter tolerance     =   0.000010000
  Maximum function  tolerance     =   0.000010000
  Maximum gradient  tolerance     =   0.001000000
  Maximum gradient  component     =   0.010000000

  Conjugate gradient optimiser to be used

  Lower half triangular hessian to be used

  Minimiser to switch to RFO
  When gradient norm is less than     0.010000

  Start of bulk optimisation :

  Cycle:      0 Energy:      -654.988204  Gnorm:      0.004071  CPU:    0.028
  ** Hessian has required structure
  Cycle:      1 Energy:      -654.988219  Gnorm:      0.000001  CPU:    0.103
  ** Hessian has required structure


  **** Optimisation achieved ****


  Final enthalpy =    -654.98821904 eV      
  Final Gnorm    =       0.00000001

  Components of enthalpy : 

--------------------------------------------------------------------------------
  Interatomic potentials     =         218.76778669 eV    
  Monopole - monopole (real) =        -506.10020628 eV    
  Monopole - monopole (recip)=        -493.14781380 eV    
  Monopole - monopole (total)=        -999.24802008 eV    
  Pressure*volume            =         125.49201435 eV    
--------------------------------------------------------------------------------
  Total lattice enthalpy     =        -654.98821904 eV    
--------------------------------------------------------------------------------
  Total lattice enthalpy     =          -63196.3507 kJ/(mole unit cells)
--------------------------------------------------------------------------------

  Final fractional coordinates of atoms :

--------------------------------------------------------------------------------
   No.  Atomic        x           y          z          Radius
        Label       (Frac)      (Frac)     (Frac)       (Angs) 
--------------------------------------------------------------------------------
     1  Mg    c     0.708788    0.096618    0.559693    0.000000
     2  Mg    c     0.498465    0.096618    0.059693    0.000000
     3  Mg    c     0.208788    0.596618    0.556240    0.000000
     4  Mg    c     0.998465    0.596618    0.056240    0.000000
     5  Al    c     0.967073    0.096618    0.729834    0.000000
     6  Al    c     0.240180    0.096618    0.229834    0.000000
     7  Al    c     0.737817    0.096618    0.231113    0.000000
     8  Al    c     0.469436    0.096618    0.731113    0.000000
     9  Al    c     0.740180    0.596618    0.886099    0.000000
    10  Al    c     0.969436    0.596618    0.384820    0.000000
    11  Al    c     0.467073    0.596618    0.386099    0.000000
    12  Al    c     0.237817    0.596618    0.884820    0.000000
    13  O     c     0.926540    0.096618    0.227095    0.000000
    14  O     c     0.280713    0.096618    0.727095    0.000000
    15  O     c     0.524945    0.596618    0.594529    0.000000
    16  O     c     0.024945    0.096618    0.521405    0.000000
    17  O     c     0.637557    0.096618    0.821755    0.000000
    18  O     c     0.182308    0.096618    0.021405    0.000000
    19  O     c     0.569696    0.096618    0.321755    0.000000
    20  O     c     0.872421    0.096618    0.932747    0.000000
    21  O     c     0.426540    0.596618    0.888838    0.000000
    22  O     c     0.780713    0.596618    0.388838    0.000000
    23  O     c     0.682308    0.596618    0.094529    0.000000
    24  O     c     0.069696    0.596618    0.794178    0.000000
    25  O     c     0.834832    0.596618    0.683187    0.000000
    26  O     c     0.372421    0.596618    0.183187    0.000000
    27  O     c     0.137557    0.596618    0.294178    0.000000
    28  O     c     0.334832    0.096618    0.432747    0.000000
--------------------------------------------------------------------------------

  Final internal derivatives :

--------------------------------------------------------------------------------
   No.  Atomic          a             b             c           Radius
        Label          (eV)          (eV)          (eV)        (eV/Angs)
--------------------------------------------------------------------------------
      1 Mg    c       0.000000      0.000000      0.000000      0.000000
      2 Mg    c      -0.000000     -0.000000     -0.000000      0.000000
      3 Mg    c       0.000000      0.000000      0.000000      0.000000
      4 Mg    c      -0.000000      0.000000      0.000000      0.000000
      5 Al    c      -0.000000     -0.000000     -0.000000      0.000000
      6 Al    c       0.000000     -0.000000     -0.000000      0.000000
      7 Al    c       0.000000     -0.000000     -0.000000      0.000000
      8 Al    c      -0.000000     -0.000000      0.000000      0.000000
      9 Al    c       0.000000     -0.000000      0.000000      0.000000
     10 Al    c      -0.000000      0.000000      0.000000      0.000000
     11 Al    c      -0.000000      0.000000      0.000000      0.000000
     12 Al    c       0.000000      0.000000      0.000000      0.000000
     13 O     c       0.000000     -0.000000     -0.000000      0.000000
     14 O     c      -0.000000     -0.000000     -0.000000      0.000000
     15 O     c      -0.000000      0.000000     -0.000000      0.000000
     16 O     c      -0.000000     -0.000000      0.000000      0.000000
     17 O     c       0.000000     -0.000000      0.000000      0.000000
     18 O     c       0.000000     -0.000000      0.000000      0.000000
     19 O     c      -0.000000     -0.000000      0.000000      0.000000
     20 O     c      -0.000000      0.000000      0.000000      0.000000
     21 O     c       0.000000      0.000000      0.000000      0.000000
     22 O     c      -0.000000      0.000000      0.000000      0.000000
     23 O     c       0.000000      0.000000     -0.000000      0.000000
     24 O     c      -0.000000      0.000000     -0.000000      0.000000
     25 O     c       0.000000      0.000000     -0.000000      0.000000
     26 O     c      -0.000000      0.000000     -0.000000      0.000000
     27 O     c       0.000000      0.000000     -0.000000      0.000000
     28 O     c       0.000000     -0.000000      0.000000      0.000000
--------------------------------------------------------------------------------
  Maximum abs         0.000000      0.000000      0.000000      0.000000
--------------------------------------------------------------------------------


  Time to end of optimisation =       0.1567 seconds


  Peak dynamic memory used =       2.01 MB 


  Timing analysis for GULP :

--------------------------------------------------------------------------------
  Task / Subroutine                                          Time (Seconds)
--------------------------------------------------------------------------------
  Calculation of reciprocal space energy and derivatives          0.0350
  Calculation of real space energy and derivatives                0.0807
  Calculation and manipulation of Hessian matrix                  0.0273
--------------------------------------------------------------------------------
  Total CPU time                                                  0.1567
--------------------------------------------------------------------------------


  Job Finished at 12:51.25 10th June       2024                               

