********************************************************************************
*                       GENERAL UTILITY LATTICE PROGRAM                        *
*                                 Julian Gale                                  *
*                       Curtin Institute for Computation                       *
*                    School of Molecular and Life Sciences                     *
*                    Curtin University, Western Australia                      *
********************************************************************************
* Version = 6.0.0 * Last modified =  12th July 2021                            *
********************************************************************************
*  optimise     - perform optimisation run                                     *
*  conv         - constant volume calculation                                  *
*  nosymmetry   - turn off symmetry after initial structure generation         *
*  conjugate    - use conjugate gradients minimiser                            *
********************************************************************************

  Job Started  at 12:51.19 10th June       2024                               

  Number of CPUs =     1


  Total number of configurations input =      1

********************************************************************************
*  Input for Configuration =   1                                               *
********************************************************************************

  Formula = Mg4Al8O16                                                   

  Number of irreducible atoms/shells =      28


  Total number atoms/shells =      28

  Dimensionality = 3               :  Bulk   



  Cartesian lattice vectors (Angstroms) :

        7.997956    0.000000    0.000000
        0.106115    9.380281    0.000000
        0.000000    0.000000    2.681995

  Cell parameters (Angstroms/Degrees):

  a =       7.9980    alpha =  90.0000
  b =       9.3809    beta  =  90.0000
  c =       2.6820    gamma =  89.3519

  Initial cell volume =         201.211511 Angs**3

  Temperature of configuration =   0.00     K 

  Pressure of configuration =       100.000 GPa 

  Fractional coordinates of asymmetric unit :

--------------------------------------------------------------------------------
   No.  Atomic       x           y          z         Charge      Occupancy
        Label      (Frac)      (Frac)     (Frac)        (e)         (Frac)  
--------------------------------------------------------------------------------
      1 Mg    c    0.730917    0.735609    0.430848     2.00000    1.000000    
      2 Mg    c    0.060411 *  0.703105 *  0.430848 *   2.00000    1.000000    
      3 Mg    c    0.567678 *  0.986001 *  0.930848 *   2.00000    1.000000    
      4 Mg    c    0.068961 *  0.196791 *  0.930848 *   2.00000    1.000000    
      5 Al    c    0.897824 *  0.458871 *  0.930848 *   3.00000    1.000000    
      6 Al    c    0.399557 *  0.227282 *  0.930848 *   3.00000    1.000000    
      7 Al    c    0.391065 *  0.724817 *  0.930848 *   3.00000    1.000000    
      8 Al    c    0.895818 *  0.959067 *  0.930848 *   3.00000    1.000000    
      9 Al    c    0.747090 *  0.225533 *  0.430848 *   3.00000    1.000000    
     10 Al    c    0.235163 *  0.459230 *  0.430848 *   3.00000    1.000000    
     11 Al    c    0.578629 *  0.492191 *  0.430848 *   3.00000    1.000000    
     12 Al    c    0.243741 *  0.955088 *  0.430848 *   3.00000    1.000000    
     13 O     c    0.946071 *  0.326539 *  0.430848 *  -2.00000    1.000000    
     14 O     c    0.536792 *  0.176754 *  0.430848 *  -2.00000    1.000000    
     15 O     c    0.454813 *  0.850728 *  0.430848 *  -2.00000    1.000000    
     16 O     c    0.908343 *  0.776685 *  0.930848 *  -2.00000    1.000000    
     17 O     c    0.738556 *  0.938107 *  0.430848 *  -2.00000    1.000000    
     18 O     c    0.102537 *  0.512219 *  0.930848 *  -2.00000    1.000000    
     19 O     c    0.820254 *  0.547899 *  0.430848 *  -2.00000    1.000000    
     20 O     c    0.316946 *  0.057008 *  0.930848 *  -2.00000    1.000000    
     21 O     c    0.243533 *  0.272390 *  0.430848 *  -2.00000    1.000000    
     22 O     c    0.684450 *  0.368129 *  0.930848 *  -2.00000    1.000000    
     23 O     c    0.201203 *  0.828154 *  0.930848 *  -2.00000    1.000000    
     24 O     c    0.580309 *  0.630501 *  0.930848 *  -2.00000    1.000000    
     25 O     c    0.040240 *  0.018063 *  0.430848 *  -2.00000    1.000000    
     26 O     c    0.320270 *  0.624685 *  0.430848 *  -2.00000    1.000000    
     27 O     c    0.817311 *  0.136425 *  0.930848 *  -2.00000    1.000000    
     28 O     c    0.409197 *  0.419114 *  0.930848 *  -2.00000    1.000000    
--------------------------------------------------------------------------------



********************************************************************************
*  General input information                                                   *
********************************************************************************

  Species output for all configurations : 

--------------------------------------------------------------------------------
  Species    Type    Atomic    Atomic    Charge       Radii (Angs)     Library
                     Number     Mass       (e)     Cova   Ionic  VDW   Symbol
--------------------------------------------------------------------------------
    Mg       Core       12      24.31   2.000000   1.100  0.000  1.640          
    Al       Core       13      26.98   3.000000   1.350  0.000  2.050          
    O        Core        8      16.00  -2.000000   0.730  0.000  1.360          
--------------------------------------------------------------------------------


  Lattice summation method               =    Ewald          (3-D)
                                         =    Parry          (2-D)
                                         =    Saunders et al (1-D)
  Accuracy factor for lattice sums       =   12.000


  Analytic derivatives to be used

  Time limit = Infinity

  Maximum range for interatomic potentials =    100000.000000 Angstroms

  General interatomic potentials :

--------------------------------------------------------------------------------
Atom  Types   Potential      Parameter       Value         Units   Cutoffs(Ang)
  1     2                                                            Min /  Max 
--------------------------------------------------------------------------------
O    c Mg   c Lennard       Lennard-Jones A  1.5000000    eV*Ang^m  0.000  6.000
                            Lennard-Jones B  0.0000000    eV*Ang^n  
                            Exponent m        12          None
                            Exponent n         6          None
--------------------------------------------------------------------------------
O    c Al   c Lennard       Lennard-Jones A  1.5000000    eV*Ang^m  0.000  6.000
                            Lennard-Jones B  0.0000000    eV*Ang^n  
                            Exponent m        12          None
                            Exponent n         6          None
--------------------------------------------------------------------------------
O    c O    c Lennard       Lennard-Jones A  1.5000000    eV*Ang^m  0.000  6.000
                            Lennard-Jones B  0.0000000    eV*Ang^n  
                            Exponent m        12          None
                            Exponent n         6          None
--------------------------------------------------------------------------------
Mg   c Mg   c Lennard       Lennard-Jones A  1.5000000    eV*Ang^m  0.000  6.000
                            Lennard-Jones B  0.0000000    eV*Ang^n  
                            Exponent m        12          None
                            Exponent n         6          None
--------------------------------------------------------------------------------
Mg   c Al   c Lennard       Lennard-Jones A  1.5000000    eV*Ang^m  0.000  6.000
                            Lennard-Jones B  0.0000000    eV*Ang^n  
                            Exponent m        12          None
                            Exponent n         6          None
--------------------------------------------------------------------------------
Al   c Al   c Lennard       Lennard-Jones A  1.5000000    eV*Ang^m  0.000  6.000
                            Lennard-Jones B  0.0000000    eV*Ang^n  
                            Exponent m        12          None
                            Exponent n         6          None
--------------------------------------------------------------------------------
O    c Mg   c Buckingham    Buckingham A     1428.5000    eV        0.000  7.000
                            Buckingham rho  0.29450000    Ang       
                            Buckingham C     0.0000000    eV*Ang^6  
--------------------------------------------------------------------------------
O    c Al   c Buckingham    Buckingham A     1114.9000    eV        0.000  7.000
                            Buckingham rho  0.31180000    Ang       
                            Buckingham C     0.0000000    eV*Ang^6  
--------------------------------------------------------------------------------
O    c O    c Buckingham    Buckingham A     2023.8000    eV        0.000  7.000
                            Buckingham rho  0.26740000    Ang       
                            Buckingham C     0.0000000    eV*Ang^6  
--------------------------------------------------------------------------------

********************************************************************************
*  Output for configuration   1                                                *
********************************************************************************


  Components of enthalpy : 

--------------------------------------------------------------------------------
  Interatomic potentials     =         218.03917503 eV    
  Monopole - monopole (real) =        -503.52377368 eV    
  Monopole - monopole (recip)=        -492.94717420 eV    
  Monopole - monopole (total)=        -996.47094787 eV    
  Pressure*volume            =         125.58537787 eV    
--------------------------------------------------------------------------------
  Total lattice enthalpy     =        -652.84639498 eV    
--------------------------------------------------------------------------------
  Total lattice enthalpy     =          -62989.6974 kJ/(mole unit cells)
--------------------------------------------------------------------------------


  Number of variables =       81

  Maximum number of calculations  =           850
  Maximum Hessian update interval =            10
  Maximum step size               =   1.000000000
  Maximum parameter tolerance     =   0.000010000
  Maximum function  tolerance     =   0.000010000
  Maximum gradient  tolerance     =   0.001000000
  Maximum gradient  component     =   0.010000000

  Conjugate gradient optimiser to be used

  Lower half triangular hessian to be used

  Minimiser to switch to RFO
  When gradient norm is less than     0.010000

  Start of bulk optimisation :

  Cycle:      0 Energy:      -652.846395  Gnorm:      0.005549  CPU:    0.027
  ** Hessian has required structure
  Cycle:      1 Energy:      -652.846422  Gnorm:      0.000070  CPU:    0.120
  ** Hessian has required structure


  **** Optimisation achieved ****


  Final enthalpy =    -652.84642165 eV      
  Final Gnorm    =       0.00000005

  Components of enthalpy : 

--------------------------------------------------------------------------------
  Interatomic potentials     =         218.00679215 eV    
  Monopole - monopole (real) =        -503.49198428 eV    
  Monopole - monopole (recip)=        -492.94660738 eV    
  Monopole - monopole (total)=        -996.43859166 eV    
  Pressure*volume            =         125.58537787 eV    
--------------------------------------------------------------------------------
  Total lattice enthalpy     =        -652.84642165 eV    
--------------------------------------------------------------------------------
  Total lattice enthalpy     =          -62989.7000 kJ/(mole unit cells)
--------------------------------------------------------------------------------

  Final fractional coordinates of atoms :

--------------------------------------------------------------------------------
   No.  Atomic        x           y          z          Radius
        Label       (Frac)      (Frac)     (Frac)       (Angs) 
--------------------------------------------------------------------------------
     1  Mg    c     0.730917    0.735609    0.430848    0.000000
     2  Mg    c     0.060439    0.703078    0.430848    0.000000
     3  Mg    c     0.567710    0.986037    0.930848    0.000000
     4  Mg    c     0.068981    0.196751    0.930848    0.000000
     5  Al    c     0.897819    0.458852    0.930848    0.000000
     6  Al    c     0.399574    0.227287    0.930848    0.000000
     7  Al    c     0.391088    0.724857    0.930848    0.000000
     8  Al    c     0.895852    0.959050    0.930848    0.000000
     9  Al    c     0.747096    0.225567    0.430848    0.000000
    10  Al    c     0.235166    0.459225    0.430848    0.000000
    11  Al    c     0.578622    0.492223    0.430848    0.000000
    12  Al    c     0.243769    0.955077    0.430848    0.000000
    13  O     c     0.946126    0.326568    0.430848    0.000000
    14  O     c     0.536807    0.176709    0.430848    0.000000
    15  O     c     0.454812    0.850761    0.430848    0.000000
    16  O     c     0.908341    0.776610    0.930848    0.000000
    17  O     c     0.738573    0.938097    0.430848    0.000000
    18  O     c     0.102530    0.512274    0.930848    0.000000
    19  O     c     0.820125    0.547857    0.430848    0.000000
    20  O     c     0.316952    0.057006    0.930848    0.000000
    21  O     c     0.243549    0.272373    0.430848    0.000000
    22  O     c     0.684434    0.368064    0.930848    0.000000
    23  O     c     0.201172    0.828152    0.930848    0.000000
    24  O     c     0.580318    0.630527    0.930848    0.000000
    25  O     c     0.040246    0.018062    0.430848    0.000000
    26  O     c     0.320296    0.624700    0.430848    0.000000
    27  O     c     0.817383    0.136417    0.930848    0.000000
    28  O     c     0.409198    0.419133    0.930848    0.000000
--------------------------------------------------------------------------------

  Final internal derivatives :

--------------------------------------------------------------------------------
   No.  Atomic          a             b             c           Radius
        Label          (eV)          (eV)          (eV)        (eV/Angs)
--------------------------------------------------------------------------------
      1 Mg    c       0.000000      0.000000      0.000000      0.000000
      2 Mg    c      -0.000000     -0.000001     -0.000000      0.000000
      3 Mg    c       0.000000      0.000000      0.000000      0.000000
      4 Mg    c      -0.000000     -0.000000      0.000000      0.000000
      5 Al    c      -0.000000     -0.000001      0.000000      0.000000
      6 Al    c      -0.000000      0.000000     -0.000000      0.000000
      7 Al    c      -0.000000      0.000000      0.000000      0.000000
      8 Al    c       0.000000     -0.000002     -0.000000      0.000000
      9 Al    c       0.000001      0.000001     -0.000000      0.000000
     10 Al    c       0.000000      0.000000      0.000000      0.000000
     11 Al    c       0.000002     -0.000000     -0.000000      0.000000
     12 Al    c       0.000000     -0.000000      0.000000      0.000000
     13 O     c       0.000000     -0.000001     -0.000000      0.000000
     14 O     c      -0.000000     -0.000000      0.000000      0.000000
     15 O     c      -0.000000      0.000001     -0.000000      0.000000
     16 O     c       0.000000      0.000002     -0.000000      0.000000
     17 O     c       0.000000      0.000000     -0.000000      0.000000
     18 O     c      -0.000000      0.000001     -0.000000      0.000000
     19 O     c      -0.000001      0.000000      0.000000      0.000000
     20 O     c       0.000000      0.000000     -0.000000      0.000000
     21 O     c       0.000000      0.000000     -0.000000      0.000000
     22 O     c      -0.000001     -0.000000     -0.000000      0.000000
     23 O     c       0.000000     -0.000000      0.000000      0.000000
     24 O     c       0.000000     -0.000001      0.000000      0.000000
     25 O     c      -0.000000      0.000000     -0.000000      0.000000
     26 O     c      -0.000000     -0.000001     -0.000000      0.000000
     27 O     c       0.000000      0.000000      0.000000      0.000000
     28 O     c      -0.000000      0.000000      0.000000      0.000000
--------------------------------------------------------------------------------
  Maximum abs         0.000002      0.000002      0.000000      0.000000
--------------------------------------------------------------------------------


  Time to end of optimisation =       0.1732 seconds


  Peak dynamic memory used =       2.01 MB 


  Timing analysis for GULP :

--------------------------------------------------------------------------------
  Task / Subroutine                                          Time (Seconds)
--------------------------------------------------------------------------------
  Calculation of reciprocal space energy and derivatives          0.0456
  Calculation of real space energy and derivatives                0.0847
  Calculation and manipulation of Hessian matrix                  0.0306
--------------------------------------------------------------------------------
  Total CPU time                                                  0.1733
--------------------------------------------------------------------------------


  Job Finished at 12:51.19 10th June       2024                               

