********************************************************************************
*                       GENERAL UTILITY LATTICE PROGRAM                        *
*                                 Julian Gale                                  *
*                       Curtin Institute for Computation                       *
*                    School of Molecular and Life Sciences                     *
*                    Curtin University, Western Australia                      *
********************************************************************************
* Version = 6.0.0 * Last modified =  12th July 2021                            *
********************************************************************************
*  optimise     - perform optimisation run                                     *
*  conv         - constant volume calculation                                  *
*  nosymmetry   - turn off symmetry after initial structure generation         *
*  conjugate    - use conjugate gradients minimiser                            *
********************************************************************************

  Job Started  at 12:51.26 10th June       2024                               

  Number of CPUs =     1


  Total number of configurations input =      1

********************************************************************************
*  Input for Configuration =   1                                               *
********************************************************************************

  Formula = Mg4Al8O16                                                   

  Number of irreducible atoms/shells =      28


  Total number atoms/shells =      28

  Dimensionality = 3               :  Bulk   



  Cartesian lattice vectors (Angstroms) :

        9.346156    0.000000    0.000000
        0.000000    2.688367    0.000000
        0.000000    0.000000    8.002181

  Cell parameters (Angstroms/Degrees):

  a =       9.3462    alpha =  90.0000
  b =       2.6884    beta  =  90.0000
  c =       8.0022    gamma =  90.0000

  Initial cell volume =         201.061979 Angs**3

  Temperature of configuration =   0.00     K 

  Pressure of configuration =       100.000 GPa 

  Fractional coordinates of asymmetric unit :

--------------------------------------------------------------------------------
   No.  Atomic       x           y          z         Charge      Occupancy
        Label      (Frac)      (Frac)     (Frac)        (e)         (Frac)  
--------------------------------------------------------------------------------
      1 Mg    c    0.171253    0.692041    0.966569     2.00000    1.000000    
      2 Mg    c    0.881644 *  0.192041 *  0.463096 *   2.00000    1.000000    
      3 Mg    c    0.381644 *  0.692041 *  0.466569 *   2.00000    1.000000    
      4 Mg    c    0.671253 *  0.192041 *  0.963096 *   2.00000    1.000000    
      5 Al    c    0.910632 *  0.192041 *  0.791672 *   3.00000    1.000000    
      6 Al    c    0.912982 *  0.692041 *  0.136695 *   3.00000    1.000000    
      7 Al    c    0.142265 *  0.692041 *  0.637993 *   3.00000    1.000000    
      8 Al    c    0.639915 *  0.692041 *  0.636695 *   3.00000    1.000000    
      9 Al    c    0.412982 *  0.192041 *  0.792970 *   3.00000    1.000000    
     10 Al    c    0.410632 *  0.692041 *  0.137993 *   3.00000    1.000000    
     11 Al    c    0.139915 *  0.192041 *  0.292970 *   3.00000    1.000000    
     12 Al    c    0.642265 *  0.192041 *  0.291672 *   3.00000    1.000000    
     13 O     c    0.507645 *  0.192041 *  0.590082 *  -2.00000    1.000000    
     14 O     c    0.810364 *  0.192041 *  0.201014 *  -2.00000    1.000000    
     15 O     c    0.545252 *  0.692041 *  0.839583 *  -2.00000    1.000000    
     16 O     c    0.953558 *  0.692041 *  0.633953 *  -2.00000    1.000000    
     17 O     c    0.697742 *  0.692041 *  0.428261 *  -2.00000    1.000000    
     18 O     c    0.007645 *  0.692041 *  0.339583 *  -2.00000    1.000000    
     19 O     c    0.453558 *  0.192041 *  0.295712 *  -2.00000    1.000000    
     20 O     c    0.855155 *  0.692041 *  0.928261 *  -2.00000    1.000000    
     21 O     c    0.197742 *  0.192041 *  0.501404 *  -2.00000    1.000000    
     22 O     c    0.099338 *  0.192041 *  0.795712 *  -2.00000    1.000000    
     23 O     c    0.355155 *  0.192041 *  0.001404 *  -2.00000    1.000000    
     24 O     c    0.742533 *  0.192041 *  0.701014 *  -2.00000    1.000000    
     25 O     c    0.242533 *  0.692041 *  0.228651 *  -2.00000    1.000000    
     26 O     c    0.310364 *  0.692041 *  0.728651 *  -2.00000    1.000000    
     27 O     c    0.599338 *  0.692041 *  0.133953 *  -2.00000    1.000000    
     28 O     c    0.045252 *  0.192041 *  0.090082 *  -2.00000    1.000000    
--------------------------------------------------------------------------------



********************************************************************************
*  General input information                                                   *
********************************************************************************

  Species output for all configurations : 

--------------------------------------------------------------------------------
  Species    Type    Atomic    Atomic    Charge       Radii (Angs)     Library
                     Number     Mass       (e)     Cova   Ionic  VDW   Symbol
--------------------------------------------------------------------------------
    Mg       Core       12      24.31   2.000000   1.100  0.000  1.640          
    Al       Core       13      26.98   3.000000   1.350  0.000  2.050          
    O        Core        8      16.00  -2.000000   0.730  0.000  1.360          
--------------------------------------------------------------------------------


  Lattice summation method               =    Ewald          (3-D)
                                         =    Parry          (2-D)
                                         =    Saunders et al (1-D)
  Accuracy factor for lattice sums       =   12.000


  Analytic derivatives to be used

  Time limit = Infinity

  Maximum range for interatomic potentials =    100000.000000 Angstroms

  General interatomic potentials :

--------------------------------------------------------------------------------
Atom  Types   Potential      Parameter       Value         Units   Cutoffs(Ang)
  1     2                                                            Min /  Max 
--------------------------------------------------------------------------------
O    c Mg   c Lennard       Lennard-Jones A  1.5000000    eV*Ang^m  0.000  6.000
                            Lennard-Jones B  0.0000000    eV*Ang^n  
                            Exponent m        12          None
                            Exponent n         6          None
--------------------------------------------------------------------------------
O    c Al   c Lennard       Lennard-Jones A  1.5000000    eV*Ang^m  0.000  6.000
                            Lennard-Jones B  0.0000000    eV*Ang^n  
                            Exponent m        12          None
                            Exponent n         6          None
--------------------------------------------------------------------------------
O    c O    c Lennard       Lennard-Jones A  1.5000000    eV*Ang^m  0.000  6.000
                            Lennard-Jones B  0.0000000    eV*Ang^n  
                            Exponent m        12          None
                            Exponent n         6          None
--------------------------------------------------------------------------------
Mg   c Mg   c Lennard       Lennard-Jones A  1.5000000    eV*Ang^m  0.000  6.000
                            Lennard-Jones B  0.0000000    eV*Ang^n  
                            Exponent m        12          None
                            Exponent n         6          None
--------------------------------------------------------------------------------
Mg   c Al   c Lennard       Lennard-Jones A  1.5000000    eV*Ang^m  0.000  6.000
                            Lennard-Jones B  0.0000000    eV*Ang^n  
                            Exponent m        12          None
                            Exponent n         6          None
--------------------------------------------------------------------------------
Al   c Al   c Lennard       Lennard-Jones A  1.5000000    eV*Ang^m  0.000  6.000
                            Lennard-Jones B  0.0000000    eV*Ang^n  
                            Exponent m        12          None
                            Exponent n         6          None
--------------------------------------------------------------------------------
O    c Mg   c Buckingham    Buckingham A     1428.5000    eV        0.000  7.000
                            Buckingham rho  0.29450000    Ang       
                            Buckingham C     0.0000000    eV*Ang^6  
--------------------------------------------------------------------------------
O    c Al   c Buckingham    Buckingham A     1114.9000    eV        0.000  7.000
                            Buckingham rho  0.31180000    Ang       
                            Buckingham C     0.0000000    eV*Ang^6  
--------------------------------------------------------------------------------
O    c O    c Buckingham    Buckingham A     2023.8000    eV        0.000  7.000
                            Buckingham rho  0.26740000    Ang       
                            Buckingham C     0.0000000    eV*Ang^6  
--------------------------------------------------------------------------------

********************************************************************************
*  Output for configuration   1                                                *
********************************************************************************


  Components of enthalpy : 

--------------------------------------------------------------------------------
  Interatomic potentials     =         218.79101104 eV    
  Monopole - monopole (real) =        -506.12332485 eV    
  Monopole - monopole (recip)=        -493.14793834 eV    
  Monopole - monopole (total)=        -999.27126319 eV    
  Pressure*volume            =         125.49204760 eV    
--------------------------------------------------------------------------------
  Total lattice enthalpy     =        -654.98820455 eV    
--------------------------------------------------------------------------------
  Total lattice enthalpy     =          -63196.3493 kJ/(mole unit cells)
--------------------------------------------------------------------------------


  Number of variables =       81

  Maximum number of calculations  =           850
  Maximum Hessian update interval =            10
  Maximum step size               =   1.000000000
  Maximum parameter tolerance     =   0.000010000
  Maximum function  tolerance     =   0.000010000
  Maximum gradient  tolerance     =   0.001000000
  Maximum gradient  component     =   0.010000000

  Conjugate gradient optimiser to be used

  Lower half triangular hessian to be used

  Minimiser to switch to RFO
  When gradient norm is less than     0.010000

  Start of bulk optimisation :

  Cycle:      0 Energy:      -654.988205  Gnorm:      0.004035  CPU:    0.027
  ** Hessian has required structure
  Cycle:      1 Energy:      -654.988219  Gnorm:      0.000001  CPU:    0.103
  ** Hessian has required structure


  **** Optimisation achieved ****


  Final enthalpy =    -654.98821912 eV      
  Final Gnorm    =       0.00000000

  Components of enthalpy : 

--------------------------------------------------------------------------------
  Interatomic potentials     =         218.76766075 eV    
  Monopole - monopole (real) =        -506.10015714 eV    
  Monopole - monopole (recip)=        -493.14777033 eV    
  Monopole - monopole (total)=        -999.24792747 eV    
  Pressure*volume            =         125.49204760 eV    
--------------------------------------------------------------------------------
  Total lattice enthalpy     =        -654.98821912 eV    
--------------------------------------------------------------------------------
  Total lattice enthalpy     =          -63196.3507 kJ/(mole unit cells)
--------------------------------------------------------------------------------

  Final fractional coordinates of atoms :

--------------------------------------------------------------------------------
   No.  Atomic        x           y          z          Radius
        Label       (Frac)      (Frac)     (Frac)       (Angs) 
--------------------------------------------------------------------------------
     1  Mg    c     0.171253    0.692041    0.966569    0.000000
     2  Mg    c     0.881576    0.192041    0.463116    0.000000
     3  Mg    c     0.381576    0.692041    0.466569    0.000000
     4  Mg    c     0.671253    0.192041    0.963116    0.000000
     5  Al    c     0.910605    0.192041    0.791696    0.000000
     6  Al    c     0.912968    0.692041    0.136710    0.000000
     7  Al    c     0.142224    0.692041    0.637989    0.000000
     8  Al    c     0.639861    0.692041    0.636710    0.000000
     9  Al    c     0.412968    0.192041    0.792975    0.000000
    10  Al    c     0.410605    0.692041    0.137989    0.000000
    11  Al    c     0.139861    0.192041    0.292975    0.000000
    12  Al    c     0.642224    0.192041    0.291696    0.000000
    13  O     c     0.507620    0.192041    0.590063    0.000000
    14  O     c     0.810345    0.192041    0.201054    0.000000
    15  O     c     0.545209    0.692041    0.839623    0.000000
    16  O     c     0.953501    0.692041    0.633971    0.000000
    17  O     c     0.697733    0.692041    0.428281    0.000000
    18  O     c     0.007620    0.692041    0.339623    0.000000
    19  O     c     0.453501    0.192041    0.295714    0.000000
    20  O     c     0.855096    0.692041    0.928281    0.000000
    21  O     c     0.197733    0.192041    0.501405    0.000000
    22  O     c     0.099328    0.192041    0.795714    0.000000
    23  O     c     0.355096    0.192041    0.001405    0.000000
    24  O     c     0.742484    0.192041    0.701054    0.000000
    25  O     c     0.242484    0.692041    0.228631    0.000000
    26  O     c     0.310345    0.692041    0.728631    0.000000
    27  O     c     0.599328    0.692041    0.133971    0.000000
    28  O     c     0.045209    0.192041    0.090063    0.000000
--------------------------------------------------------------------------------

  Final internal derivatives :

--------------------------------------------------------------------------------
   No.  Atomic          a             b             c           Radius
        Label          (eV)          (eV)          (eV)        (eV/Angs)
--------------------------------------------------------------------------------
      1 Mg    c       0.000000      0.000000      0.000000      0.000000
      2 Mg    c       0.000000     -0.000000      0.000000      0.000000
      3 Mg    c       0.000000      0.000000     -0.000000      0.000000
      4 Mg    c      -0.000000      0.000000      0.000000      0.000000
      5 Al    c       0.000000     -0.000000     -0.000000      0.000000
      6 Al    c       0.000000      0.000000      0.000000      0.000000
      7 Al    c      -0.000000      0.000000      0.000000      0.000000
      8 Al    c      -0.000000      0.000000      0.000000      0.000000
      9 Al    c       0.000000      0.000000     -0.000000      0.000000
     10 Al    c       0.000000      0.000000      0.000000      0.000000
     11 Al    c      -0.000000     -0.000000     -0.000000      0.000000
     12 Al    c      -0.000000     -0.000000     -0.000000      0.000000
     13 O     c       0.000000     -0.000000      0.000000      0.000000
     14 O     c      -0.000000     -0.000000     -0.000000      0.000000
     15 O     c      -0.000000     -0.000000     -0.000000      0.000000
     16 O     c      -0.000000      0.000000      0.000000      0.000000
     17 O     c      -0.000000      0.000000     -0.000000      0.000000
     18 O     c       0.000000      0.000000     -0.000000      0.000000
     19 O     c      -0.000000     -0.000000     -0.000000      0.000000
     20 O     c       0.000000     -0.000000     -0.000000      0.000000
     21 O     c      -0.000000     -0.000000      0.000000      0.000000
     22 O     c       0.000000     -0.000000     -0.000000      0.000000
     23 O     c       0.000000     -0.000000      0.000000      0.000000
     24 O     c       0.000000      0.000000     -0.000000      0.000000
     25 O     c       0.000000      0.000000      0.000000      0.000000
     26 O     c      -0.000000     -0.000000      0.000000      0.000000
     27 O     c       0.000000      0.000000      0.000000      0.000000
     28 O     c      -0.000000     -0.000000      0.000000      0.000000
--------------------------------------------------------------------------------
  Maximum abs         0.000000      0.000000      0.000000      0.000000
--------------------------------------------------------------------------------


  Time to end of optimisation =       0.1547 seconds


  Peak dynamic memory used =       2.01 MB 


  Timing analysis for GULP :

--------------------------------------------------------------------------------
  Task / Subroutine                                          Time (Seconds)
--------------------------------------------------------------------------------
  Calculation of reciprocal space energy and derivatives          0.0356
  Calculation of real space energy and derivatives                0.0794
  Calculation and manipulation of Hessian matrix                  0.0277
--------------------------------------------------------------------------------
  Total CPU time                                                  0.1547
--------------------------------------------------------------------------------


  Job Finished at 12:51.26 10th June       2024                               

