********************************************************************************
*                       GENERAL UTILITY LATTICE PROGRAM                        *
*                                 Julian Gale                                  *
*                       Curtin Institute for Computation                       *
*                    School of Molecular and Life Sciences                     *
*                    Curtin University, Western Australia                      *
********************************************************************************
* Version = 6.0.0 * Last modified =  12th July 2021                            *
********************************************************************************
*  optimise     - perform optimisation run                                     *
*  conv         - constant volume calculation                                  *
*  nosymmetry   - turn off symmetry after initial structure generation         *
*  conjugate    - use conjugate gradients minimiser                            *
********************************************************************************

  Job Started  at 12:51.24 10th June       2024                               

  Number of CPUs =     1


  Total number of configurations input =      1

********************************************************************************
*  Input for Configuration =   1                                               *
********************************************************************************

  Formula = Mg4Al8O16                                                   

  Number of irreducible atoms/shells =      28


  Total number atoms/shells =      28

  Dimensionality = 3               :  Bulk   



  Cartesian lattice vectors (Angstroms) :

        2.688367    0.000000    0.000000
        0.000000    9.346157    0.000000
        0.000000    0.000000    8.002181

  Cell parameters (Angstroms/Degrees):

  a =       2.6884    alpha =  90.0000
  b =       9.3462    beta  =  90.0000
  c =       8.0022    gamma =  90.0000

  Initial cell volume =         201.062000 Angs**3

  Temperature of configuration =   0.00     K 

  Pressure of configuration =       100.000 GPa 

  Fractional coordinates of asymmetric unit :

--------------------------------------------------------------------------------
   No.  Atomic       x           y          z         Charge      Occupancy
        Label      (Frac)      (Frac)     (Frac)        (e)         (Frac)  
--------------------------------------------------------------------------------
      1 Mg    c    0.165534    0.414011    0.339032     2.00000    1.000000    
      2 Mg    c    0.165534 *  0.203620 *  0.839032 *   2.00000    1.000000    
      3 Mg    c    0.665534 *  0.914011 *  0.335559 *   2.00000    1.000000    
      4 Mg    c    0.665534 *  0.703620 *  0.835559 *   2.00000    1.000000    
      5 Al    c    0.665534 *  0.172282 *  0.165433 *   3.00000    1.000000    
      6 Al    c    0.665534 *  0.445349 *  0.665433 *   3.00000    1.000000    
      7 Al    c    0.165534 *  0.442999 *  0.010457 *   3.00000    1.000000    
      8 Al    c    0.165534 *  0.174632 *  0.510456 *   3.00000    1.000000    
      9 Al    c    0.665534 *  0.674632 *  0.164134 *   3.00000    1.000000    
     10 Al    c    0.665534 *  0.942999 *  0.664134 *   3.00000    1.000000    
     11 Al    c    0.165534 *  0.945349 *  0.009158 *   3.00000    1.000000    
     12 Al    c    0.165534 *  0.672282 *  0.509158 *   3.00000    1.000000    
     13 O     c    0.165534 *  0.274900 *  0.101114 *  -2.00000    1.000000    
     14 O     c    0.165534 *  0.577619 *  0.712046 *  -2.00000    1.000000    
     15 O     c    0.665534 *  0.485926 *  0.168175 *  -2.00000    1.000000    
     16 O     c    0.665534 *  0.131705 *  0.668175 *  -2.00000    1.000000    
     17 O     c    0.665534 *  0.387522 *  0.873867 *  -2.00000    1.000000    
     18 O     c    0.665534 *  0.230109 *  0.373867 *  -2.00000    1.000000    
     19 O     c    0.165534 *  0.040012 *  0.212046 *  -2.00000    1.000000    
     20 O     c    0.165534 *  0.342731 *  0.601114 *  -2.00000    1.000000    
     21 O     c    0.165534 *  0.631705 *  0.006416 *  -2.00000    1.000000    
     22 O     c    0.165534 *  0.985926 *  0.506416 *  -2.00000    1.000000    
     23 O     c    0.665534 *  0.842731 *  0.073477 *  -2.00000    1.000000    
     24 O     c    0.665534 *  0.774900 *  0.573477 *  -2.00000    1.000000    
     25 O     c    0.665534 *  0.077619 *  0.962545 *  -2.00000    1.000000    
     26 O     c    0.165534 *  0.730109 *  0.300724 *  -2.00000    1.000000    
     27 O     c    0.665534 *  0.540012 *  0.462545 *  -2.00000    1.000000    
     28 O     c    0.165534 *  0.887522 *  0.800724 *  -2.00000    1.000000    
--------------------------------------------------------------------------------



********************************************************************************
*  General input information                                                   *
********************************************************************************

  Species output for all configurations : 

--------------------------------------------------------------------------------
  Species    Type    Atomic    Atomic    Charge       Radii (Angs)     Library
                     Number     Mass       (e)     Cova   Ionic  VDW   Symbol
--------------------------------------------------------------------------------
    Mg       Core       12      24.31   2.000000   1.100  0.000  1.640          
    Al       Core       13      26.98   3.000000   1.350  0.000  2.050          
    O        Core        8      16.00  -2.000000   0.730  0.000  1.360          
--------------------------------------------------------------------------------


  Lattice summation method               =    Ewald          (3-D)
                                         =    Parry          (2-D)
                                         =    Saunders et al (1-D)
  Accuracy factor for lattice sums       =   12.000


  Analytic derivatives to be used

  Time limit = Infinity

  Maximum range for interatomic potentials =    100000.000000 Angstroms

  General interatomic potentials :

--------------------------------------------------------------------------------
Atom  Types   Potential      Parameter       Value         Units   Cutoffs(Ang)
  1     2                                                            Min /  Max 
--------------------------------------------------------------------------------
O    c Mg   c Lennard       Lennard-Jones A  1.5000000    eV*Ang^m  0.000  6.000
                            Lennard-Jones B  0.0000000    eV*Ang^n  
                            Exponent m        12          None
                            Exponent n         6          None
--------------------------------------------------------------------------------
O    c Al   c Lennard       Lennard-Jones A  1.5000000    eV*Ang^m  0.000  6.000
                            Lennard-Jones B  0.0000000    eV*Ang^n  
                            Exponent m        12          None
                            Exponent n         6          None
--------------------------------------------------------------------------------
O    c O    c Lennard       Lennard-Jones A  1.5000000    eV*Ang^m  0.000  6.000
                            Lennard-Jones B  0.0000000    eV*Ang^n  
                            Exponent m        12          None
                            Exponent n         6          None
--------------------------------------------------------------------------------
Mg   c Mg   c Lennard       Lennard-Jones A  1.5000000    eV*Ang^m  0.000  6.000
                            Lennard-Jones B  0.0000000    eV*Ang^n  
                            Exponent m        12          None
                            Exponent n         6          None
--------------------------------------------------------------------------------
Mg   c Al   c Lennard       Lennard-Jones A  1.5000000    eV*Ang^m  0.000  6.000
                            Lennard-Jones B  0.0000000    eV*Ang^n  
                            Exponent m        12          None
                            Exponent n         6          None
--------------------------------------------------------------------------------
Al   c Al   c Lennard       Lennard-Jones A  1.5000000    eV*Ang^m  0.000  6.000
                            Lennard-Jones B  0.0000000    eV*Ang^n  
                            Exponent m        12          None
                            Exponent n         6          None
--------------------------------------------------------------------------------
O    c Mg   c Buckingham    Buckingham A     1428.5000    eV        0.000  7.000
                            Buckingham rho  0.29450000    Ang       
                            Buckingham C     0.0000000    eV*Ang^6  
--------------------------------------------------------------------------------
O    c Al   c Buckingham    Buckingham A     1114.9000    eV        0.000  7.000
                            Buckingham rho  0.31180000    Ang       
                            Buckingham C     0.0000000    eV*Ang^6  
--------------------------------------------------------------------------------
O    c O    c Buckingham    Buckingham A     2023.8000    eV        0.000  7.000
                            Buckingham rho  0.26740000    Ang       
                            Buckingham C     0.0000000    eV*Ang^6  
--------------------------------------------------------------------------------

********************************************************************************
*  Output for configuration   1                                                *
********************************************************************************


  Components of enthalpy : 

--------------------------------------------------------------------------------
  Interatomic potentials     =         218.79115191 eV    
  Monopole - monopole (real) =        -506.12349470 eV    
  Monopole - monopole (recip)=        -493.14792262 eV    
  Monopole - monopole (total)=        -999.27141732 eV    
  Pressure*volume            =         125.49206103 eV    
--------------------------------------------------------------------------------
  Total lattice enthalpy     =        -654.98820438 eV    
--------------------------------------------------------------------------------
  Total lattice enthalpy     =          -63196.3493 kJ/(mole unit cells)
--------------------------------------------------------------------------------


  Number of variables =       81

  Maximum number of calculations  =           850
  Maximum Hessian update interval =            10
  Maximum step size               =   1.000000000
  Maximum parameter tolerance     =   0.000010000
  Maximum function  tolerance     =   0.000010000
  Maximum gradient  tolerance     =   0.001000000
  Maximum gradient  component     =   0.010000000

  Conjugate gradient optimiser to be used

  Lower half triangular hessian to be used

  Minimiser to switch to RFO
  When gradient norm is less than     0.010000

  Start of bulk optimisation :

  Cycle:      0 Energy:      -654.988204  Gnorm:      0.004080  CPU:    0.032
  ** Hessian has required structure
  Cycle:      1 Energy:      -654.988219  Gnorm:      0.000001  CPU:    0.121
  ** Hessian has required structure


  **** Optimisation achieved ****


  Final enthalpy =    -654.98821915 eV      
  Final Gnorm    =       0.00000000

  Components of enthalpy : 

--------------------------------------------------------------------------------
  Interatomic potentials     =         218.76761407 eV    
  Monopole - monopole (real) =        -506.10014149 eV    
  Monopole - monopole (recip)=        -493.14775276 eV    
  Monopole - monopole (total)=        -999.24789425 eV    
  Pressure*volume            =         125.49206103 eV    
--------------------------------------------------------------------------------
  Total lattice enthalpy     =        -654.98821915 eV    
--------------------------------------------------------------------------------
  Total lattice enthalpy     =          -63196.3507 kJ/(mole unit cells)
--------------------------------------------------------------------------------

  Final fractional coordinates of atoms :

--------------------------------------------------------------------------------
   No.  Atomic        x           y          z          Radius
        Label       (Frac)      (Frac)     (Frac)       (Angs) 
--------------------------------------------------------------------------------
     1  Mg    c     0.165534    0.414011    0.339032    0.000000
     2  Mg    c     0.165534    0.203688    0.839032    0.000000
     3  Mg    c     0.665534    0.914011    0.335579    0.000000
     4  Mg    c     0.665534    0.703688    0.835579    0.000000
     5  Al    c     0.665534    0.172296    0.165438    0.000000
     6  Al    c     0.665534    0.445403    0.665438    0.000000
     7  Al    c     0.165534    0.443040    0.010452    0.000000
     8  Al    c     0.165534    0.174659    0.510452    0.000000
     9  Al    c     0.665534    0.674659    0.164159    0.000000
    10  Al    c     0.665534    0.943040    0.664159    0.000000
    11  Al    c     0.165534    0.945403    0.009173    0.000000
    12  Al    c     0.165534    0.672296    0.509173    0.000000
    13  O     c     0.165534    0.274919    0.101094    0.000000
    14  O     c     0.165534    0.577644    0.712086    0.000000
    15  O     c     0.665534    0.485936    0.168177    0.000000
    16  O     c     0.665534    0.131763    0.668177    0.000000
    17  O     c     0.665534    0.387531    0.873868    0.000000
    18  O     c     0.665534    0.230168    0.373868    0.000000
    19  O     c     0.165534    0.040055    0.212086    0.000000
    20  O     c     0.165534    0.342780    0.601094    0.000000
    21  O     c     0.165534    0.631763    0.006434    0.000000
    22  O     c     0.165534    0.985936    0.506434    0.000000
    23  O     c     0.665534    0.842780    0.073517    0.000000
    24  O     c     0.665534    0.774919    0.573517    0.000000
    25  O     c     0.665534    0.077644    0.962526    0.000000
    26  O     c     0.165534    0.730168    0.300744    0.000000
    27  O     c     0.665534    0.540055    0.462526    0.000000
    28  O     c     0.165534    0.887531    0.800744    0.000000
--------------------------------------------------------------------------------

  Final internal derivatives :

--------------------------------------------------------------------------------
   No.  Atomic          a             b             c           Radius
        Label          (eV)          (eV)          (eV)        (eV/Angs)
--------------------------------------------------------------------------------
      1 Mg    c       0.000000      0.000000      0.000000      0.000000
      2 Mg    c       0.000000     -0.000000     -0.000000      0.000000
      3 Mg    c      -0.000000      0.000000      0.000000      0.000000
      4 Mg    c      -0.000000     -0.000000      0.000000      0.000000
      5 Al    c      -0.000000     -0.000000     -0.000000      0.000000
      6 Al    c      -0.000000      0.000000     -0.000000      0.000000
      7 Al    c      -0.000000      0.000000      0.000000      0.000000
      8 Al    c       0.000000     -0.000000      0.000000      0.000000
      9 Al    c       0.000000     -0.000000     -0.000000      0.000000
     10 Al    c      -0.000000      0.000000     -0.000000      0.000000
     11 Al    c       0.000000      0.000000      0.000000      0.000000
     12 Al    c       0.000000     -0.000000      0.000000      0.000000
     13 O     c       0.000000      0.000000      0.000000      0.000000
     14 O     c      -0.000000     -0.000000     -0.000000      0.000000
     15 O     c      -0.000000     -0.000000     -0.000000      0.000000
     16 O     c       0.000000      0.000000     -0.000000      0.000000
     17 O     c       0.000000      0.000000      0.000000      0.000000
     18 O     c      -0.000000     -0.000000      0.000000      0.000000
     19 O     c      -0.000000      0.000000     -0.000000      0.000000
     20 O     c       0.000000     -0.000000      0.000000      0.000000
     21 O     c       0.000000      0.000000      0.000000      0.000000
     22 O     c       0.000000     -0.000000      0.000000      0.000000
     23 O     c      -0.000000     -0.000000     -0.000000      0.000000
     24 O     c       0.000000      0.000000     -0.000000      0.000000
     25 O     c      -0.000000     -0.000000      0.000000      0.000000
     26 O     c      -0.000000     -0.000000     -0.000000      0.000000
     27 O     c       0.000000      0.000000      0.000000      0.000000
     28 O     c       0.000000      0.000000     -0.000000      0.000000
--------------------------------------------------------------------------------
  Maximum abs         0.000000      0.000000      0.000000      0.000000
--------------------------------------------------------------------------------


  Time to end of optimisation =       0.1780 seconds


  Peak dynamic memory used =       2.01 MB 


  Timing analysis for GULP :

--------------------------------------------------------------------------------
  Task / Subroutine                                          Time (Seconds)
--------------------------------------------------------------------------------
  Calculation of reciprocal space energy and derivatives          0.0464
  Calculation of real space energy and derivatives                0.0916
  Calculation and manipulation of Hessian matrix                  0.0273
--------------------------------------------------------------------------------
  Total CPU time                                                  0.1780
--------------------------------------------------------------------------------


  Job Finished at 12:51.24 10th June       2024                               

