********************************************************************************
*                       GENERAL UTILITY LATTICE PROGRAM                        *
*                                 Julian Gale                                  *
*                       Curtin Institute for Computation                       *
*                    School of Molecular and Life Sciences                     *
*                    Curtin University, Western Australia                      *
********************************************************************************
* Version = 6.0.0 * Last modified =  12th July 2021                            *
********************************************************************************
*  optimise     - perform optimisation run                                     *
*  conv         - constant volume calculation                                  *
*  nosymmetry   - turn off symmetry after initial structure generation         *
*  conjugate    - use conjugate gradients minimiser                            *
********************************************************************************

  Job Started  at 12:51.20 10th June       2024                               

  Number of CPUs =     1


  Total number of configurations input =      1

********************************************************************************
*  Input for Configuration =   1                                               *
********************************************************************************

  Formula = Mg4Al8O16                                                   

  Number of irreducible atoms/shells =      28


  Total number atoms/shells =      28

  Dimensionality = 3               :  Bulk   



  Cartesian lattice vectors (Angstroms) :

        4.572268    0.000000    0.000000
       -1.522506    5.052445    0.000000
        0.000000    0.000000    8.718340

  Cell parameters (Angstroms/Degrees):

  a =       4.5723    alpha =  90.0000
  b =       5.2769    beta  =  90.0000
  c =       8.7183    gamma = 106.7697

  Initial cell volume =         201.403528 Angs**3

  Temperature of configuration =   0.00     K 

  Pressure of configuration =       100.000 GPa 

  Fractional coordinates of asymmetric unit :

--------------------------------------------------------------------------------
   No.  Atomic       x           y          z         Charge      Occupancy
        Label      (Frac)      (Frac)     (Frac)        (e)         (Frac)  
--------------------------------------------------------------------------------
      1 Mg    c    0.470157    0.440890    0.614104     2.00000    1.000000    
      2 Mg    c    0.007488 *  0.325223 *  0.114104 *   2.00000    1.000000    
      3 Mg    c    0.470157 *  0.940890 *  0.614104 *   2.00000    1.000000    
      4 Mg    c    0.007488 *  0.825223 *  0.114104 *   2.00000    1.000000    
      5 Al    c    0.975582 *  0.067246 *  0.787556 *   3.00000    1.000000    
      6 Al    c    0.502063 *  0.698866 *  0.287556 *   3.00000    1.000000    
      7 Al    c    0.975582 *  0.567246 *  0.787556 *   3.00000    1.000000    
      8 Al    c    0.502063 *  0.198866 *  0.287556 *   3.00000    1.000000    
      9 Al    c    0.975582 *  0.067246 *  0.440651 *   3.00000    1.000000    
     10 Al    c    0.502063 *  0.198866 *  0.940651 *   3.00000    1.000000    
     11 Al    c    0.975582 *  0.567246 *  0.440651 *   3.00000    1.000000    
     12 Al    c    0.502063 *  0.698866 *  0.940651 *   3.00000    1.000000    
     13 O     c    0.238822 *  0.383056 *  0.864104 *  -2.00000    1.000000    
     14 O     c    0.238822 *  0.883056 *  0.364104 *  -2.00000    1.000000    
     15 O     c    0.238822 *  0.883056 *  0.864104 *  -2.00000    1.000000    
     16 O     c    0.238822 *  0.383056 *  0.364104 *  -2.00000    1.000000    
     17 O     c    0.701227 *  0.748657 *  0.472845 *  -2.00000    1.000000    
     18 O     c    0.701227 *  0.748657 *  0.755363 *  -2.00000    1.000000    
     19 O     c    0.701227 *  0.248657 *  0.472845 *  -2.00000    1.000000    
     20 O     c    0.776418 *  0.517455 *  0.972845 *  -2.00000    1.000000    
     21 O     c    0.776418 *  0.017455 *  0.255363 *  -2.00000    1.000000    
     22 O     c    0.776418 *  0.017455 *  0.972845 *  -2.00000    1.000000    
     23 O     c    0.701227 *  0.248657 *  0.755363 *  -2.00000    1.000000    
     24 O     c    0.776418 *  0.517455 *  0.255363 *  -2.00000    1.000000    
     25 O     c    0.337701 *  0.157776 *  0.114104 *  -2.00000    1.000000    
     26 O     c    0.139944 *  0.608337 *  0.614104 *  -2.00000    1.000000    
     27 O     c    0.337701 *  0.657776 *  0.114104 *  -2.00000    1.000000    
     28 O     c    0.139944 *  0.108337 *  0.614104 *  -2.00000    1.000000    
--------------------------------------------------------------------------------



********************************************************************************
*  General input information                                                   *
********************************************************************************

  Species output for all configurations : 

--------------------------------------------------------------------------------
  Species    Type    Atomic    Atomic    Charge       Radii (Angs)     Library
                     Number     Mass       (e)     Cova   Ionic  VDW   Symbol
--------------------------------------------------------------------------------
    Mg       Core       12      24.31   2.000000   1.100  0.000  1.640          
    Al       Core       13      26.98   3.000000   1.350  0.000  2.050          
    O        Core        8      16.00  -2.000000   0.730  0.000  1.360          
--------------------------------------------------------------------------------


  Lattice summation method               =    Ewald          (3-D)
                                         =    Parry          (2-D)
                                         =    Saunders et al (1-D)
  Accuracy factor for lattice sums       =   12.000


  Analytic derivatives to be used

  Time limit = Infinity

  Maximum range for interatomic potentials =    100000.000000 Angstroms

  General interatomic potentials :

--------------------------------------------------------------------------------
Atom  Types   Potential      Parameter       Value         Units   Cutoffs(Ang)
  1     2                                                            Min /  Max 
--------------------------------------------------------------------------------
O    c Mg   c Lennard       Lennard-Jones A  1.5000000    eV*Ang^m  0.000  6.000
                            Lennard-Jones B  0.0000000    eV*Ang^n  
                            Exponent m        12          None
                            Exponent n         6          None
--------------------------------------------------------------------------------
O    c Al   c Lennard       Lennard-Jones A  1.5000000    eV*Ang^m  0.000  6.000
                            Lennard-Jones B  0.0000000    eV*Ang^n  
                            Exponent m        12          None
                            Exponent n         6          None
--------------------------------------------------------------------------------
O    c O    c Lennard       Lennard-Jones A  1.5000000    eV*Ang^m  0.000  6.000
                            Lennard-Jones B  0.0000000    eV*Ang^n  
                            Exponent m        12          None
                            Exponent n         6          None
--------------------------------------------------------------------------------
Mg   c Mg   c Lennard       Lennard-Jones A  1.5000000    eV*Ang^m  0.000  6.000
                            Lennard-Jones B  0.0000000    eV*Ang^n  
                            Exponent m        12          None
                            Exponent n         6          None
--------------------------------------------------------------------------------
Mg   c Al   c Lennard       Lennard-Jones A  1.5000000    eV*Ang^m  0.000  6.000
                            Lennard-Jones B  0.0000000    eV*Ang^n  
                            Exponent m        12          None
                            Exponent n         6          None
--------------------------------------------------------------------------------
Al   c Al   c Lennard       Lennard-Jones A  1.5000000    eV*Ang^m  0.000  6.000
                            Lennard-Jones B  0.0000000    eV*Ang^n  
                            Exponent m        12          None
                            Exponent n         6          None
--------------------------------------------------------------------------------
O    c Mg   c Buckingham    Buckingham A     1428.5000    eV        0.000  7.000
                            Buckingham rho  0.29450000    Ang       
                            Buckingham C     0.0000000    eV*Ang^6  
--------------------------------------------------------------------------------
O    c Al   c Buckingham    Buckingham A     1114.9000    eV        0.000  7.000
                            Buckingham rho  0.31180000    Ang       
                            Buckingham C     0.0000000    eV*Ang^6  
--------------------------------------------------------------------------------
O    c O    c Buckingham    Buckingham A     2023.8000    eV        0.000  7.000
                            Buckingham rho  0.26740000    Ang       
                            Buckingham C     0.0000000    eV*Ang^6  
--------------------------------------------------------------------------------

********************************************************************************
*  Output for configuration   1                                                *
********************************************************************************


  Components of enthalpy : 

--------------------------------------------------------------------------------
  Interatomic potentials     =         219.25474933 eV    
  Monopole - monopole (real) =        -505.66447961 eV    
  Monopole - monopole (recip)=        -492.78499396 eV    
  Monopole - monopole (total)=        -998.44947358 eV    
  Pressure*volume            =         125.70522459 eV    
--------------------------------------------------------------------------------
  Total lattice enthalpy     =        -653.48949965 eV    
--------------------------------------------------------------------------------
  Total lattice enthalpy     =          -63051.7472 kJ/(mole unit cells)
--------------------------------------------------------------------------------


  Number of variables =       81

  Maximum number of calculations  =           850
  Maximum Hessian update interval =            10
  Maximum step size               =   1.000000000
  Maximum parameter tolerance     =   0.000010000
  Maximum function  tolerance     =   0.000010000
  Maximum gradient  tolerance     =   0.001000000
  Maximum gradient  component     =   0.010000000

  Conjugate gradient optimiser to be used

  Lower half triangular hessian to be used

  Minimiser to switch to RFO
  When gradient norm is less than     0.010000

  Start of bulk optimisation :

  Cycle:      0 Energy:      -653.489500  Gnorm:      0.004849  CPU:    0.034
  ** Hessian has required structure
  Cycle:      1 Energy:      -653.489526  Gnorm:      0.000002  CPU:    0.129
  ** Hessian has required structure


  **** Optimisation achieved ****


  Final enthalpy =    -653.48952560 eV      
  Final Gnorm    =       0.00000000

  Components of enthalpy : 

--------------------------------------------------------------------------------
  Interatomic potentials     =         219.23108405 eV    
  Monopole - monopole (real) =        -505.64144610 eV    
  Monopole - monopole (recip)=        -492.78438814 eV    
  Monopole - monopole (total)=        -998.42583424 eV    
  Pressure*volume            =         125.70522459 eV    
--------------------------------------------------------------------------------
  Total lattice enthalpy     =        -653.48952560 eV    
--------------------------------------------------------------------------------
  Total lattice enthalpy     =          -63051.7497 kJ/(mole unit cells)
--------------------------------------------------------------------------------

  Final fractional coordinates of atoms :

--------------------------------------------------------------------------------
   No.  Atomic        x           y          z          Radius
        Label       (Frac)      (Frac)     (Frac)       (Angs) 
--------------------------------------------------------------------------------
     1  Mg    c     0.470157    0.440890    0.614104    0.000000
     2  Mg    c     0.007408    0.325203    0.114104    0.000000
     3  Mg    c     0.470157    0.940890    0.614104    0.000000
     4  Mg    c     0.007408    0.825203    0.114104    0.000000
     5  Al    c     0.975562    0.067241    0.787579    0.000000
     6  Al    c     0.502004    0.698852    0.287579    0.000000
     7  Al    c     0.975562    0.567241    0.787579    0.000000
     8  Al    c     0.502004    0.198852    0.287579    0.000000
     9  Al    c     0.975562    0.067241    0.440629    0.000000
    10  Al    c     0.502004    0.198852    0.940629    0.000000
    11  Al    c     0.975562    0.567241    0.440629    0.000000
    12  Al    c     0.502004    0.698852    0.940629    0.000000
    13  O     c     0.238783    0.383046    0.864104    0.000000
    14  O     c     0.238783    0.883046    0.364104    0.000000
    15  O     c     0.238783    0.883046    0.864104    0.000000
    16  O     c     0.238783    0.383046    0.364104    0.000000
    17  O     c     0.701179    0.748645    0.472852    0.000000
    18  O     c     0.701179    0.748645    0.755356    0.000000
    19  O     c     0.701179    0.248645    0.472852    0.000000
    20  O     c     0.776387    0.517447    0.972852    0.000000
    21  O     c     0.776387    0.017447    0.255356    0.000000
    22  O     c     0.776387    0.017447    0.972852    0.000000
    23  O     c     0.701179    0.248645    0.755356    0.000000
    24  O     c     0.776387    0.517447    0.255356    0.000000
    25  O     c     0.337560    0.157741    0.114104    0.000000
    26  O     c     0.140006    0.608352    0.614104    0.000000
    27  O     c     0.337560    0.657741    0.114104    0.000000
    28  O     c     0.140006    0.108352    0.614104    0.000000
--------------------------------------------------------------------------------

  Final internal derivatives :

--------------------------------------------------------------------------------
   No.  Atomic          a             b             c           Radius
        Label          (eV)          (eV)          (eV)        (eV/Angs)
--------------------------------------------------------------------------------
      1 Mg    c       0.000000      0.000000      0.000000      0.000000
      2 Mg    c       0.000000      0.000000      0.000000      0.000000
      3 Mg    c      -0.000000      0.000000     -0.000000      0.000000
      4 Mg    c       0.000000      0.000000     -0.000000      0.000000
      5 Al    c       0.000000      0.000000     -0.000000      0.000000
      6 Al    c      -0.000000     -0.000000     -0.000000      0.000000
      7 Al    c       0.000000     -0.000000     -0.000000      0.000000
      8 Al    c      -0.000000      0.000000     -0.000000      0.000000
      9 Al    c       0.000000     -0.000000      0.000000      0.000000
     10 Al    c      -0.000000     -0.000000      0.000000      0.000000
     11 Al    c       0.000000      0.000000      0.000000      0.000000
     12 Al    c      -0.000000      0.000000      0.000000      0.000000
     13 O     c       0.000000     -0.000000      0.000000      0.000000
     14 O     c       0.000000      0.000000     -0.000000      0.000000
     15 O     c      -0.000000     -0.000000     -0.000000      0.000000
     16 O     c      -0.000000      0.000000      0.000000      0.000000
     17 O     c      -0.000000     -0.000000     -0.000000      0.000000
     18 O     c      -0.000000      0.000000      0.000000      0.000000
     19 O     c      -0.000000     -0.000000     -0.000000      0.000000
     20 O     c       0.000000      0.000000     -0.000000      0.000000
     21 O     c       0.000000     -0.000000      0.000000      0.000000
     22 O     c       0.000000     -0.000000     -0.000000      0.000000
     23 O     c      -0.000000      0.000000      0.000000      0.000000
     24 O     c       0.000000     -0.000000      0.000000      0.000000
     25 O     c       0.000000     -0.000000      0.000000      0.000000
     26 O     c      -0.000000      0.000000      0.000000      0.000000
     27 O     c       0.000000      0.000000      0.000000      0.000000
     28 O     c      -0.000000      0.000000      0.000000      0.000000
--------------------------------------------------------------------------------
  Maximum abs         0.000000      0.000000      0.000000      0.000000
--------------------------------------------------------------------------------


  Time to end of optimisation =       0.2067 seconds


  Peak dynamic memory used =       2.01 MB 


  Timing analysis for GULP :

--------------------------------------------------------------------------------
  Task / Subroutine                                          Time (Seconds)
--------------------------------------------------------------------------------
  Calculation of reciprocal space energy and derivatives          0.0347
  Calculation of real space energy and derivatives                0.1264
  Calculation and manipulation of Hessian matrix                  0.0335
--------------------------------------------------------------------------------
  Total CPU time                                                  0.2068
--------------------------------------------------------------------------------


  Job Finished at 12:51.20 10th June       2024                               

