********************************************************************************
*                       GENERAL UTILITY LATTICE PROGRAM                        *
*                                 Julian Gale                                  *
*                       Curtin Institute for Computation                       *
*                    School of Molecular and Life Sciences                     *
*                    Curtin University, Western Australia                      *
********************************************************************************
* Version = 6.0.0 * Last modified =  12th July 2021                            *
********************************************************************************
*  optimise     - perform optimisation run                                     *
*  conv         - constant volume calculation                                  *
*  nosymmetry   - turn off symmetry after initial structure generation         *
*  conjugate    - use conjugate gradients minimiser                            *
********************************************************************************

  Job Started  at 12:51.17 10th June       2024                               

  Number of CPUs =     1


  Total number of configurations input =      1

********************************************************************************
*  Input for Configuration =   1                                               *
********************************************************************************

  Formula = Mg4Al8O16                                                   

  Number of irreducible atoms/shells =      28


  Total number atoms/shells =      28

  Dimensionality = 3               :  Bulk   



  Cartesian lattice vectors (Angstroms) :

        5.266345    0.000000    0.000000
        1.320174    4.370503    0.000000
        0.037348    0.019997    8.745472

  Cell parameters (Angstroms/Degrees):

  a =       5.2663    alpha =  89.8038
  b =       4.5655    beta  =  89.7553
  c =       8.7456    gamma =  73.1923

  Initial cell volume =         201.290826 Angs**3

  Temperature of configuration =   0.00     K 

  Pressure of configuration =       100.000 GPa 

  Fractional coordinates of asymmetric unit :

--------------------------------------------------------------------------------
   No.  Atomic       x           y          z         Charge      Occupancy
        Label      (Frac)      (Frac)     (Frac)        (e)         (Frac)  
--------------------------------------------------------------------------------
      1 Mg    c    0.870861    0.006574    0.001760     2.00000    1.000000    
      2 Mg    c    0.742484 *  0.504845 *  0.163223 *   2.00000    1.000000    
      3 Mg    c    0.373559 *  0.998671 *  0.994065 *   2.00000    1.000000    
      4 Mg    c    0.985982 *  0.542160 *  0.492527 *   2.00000    1.000000    
      5 Al    c    0.620290 *  0.024126 *  0.670655 *   3.00000    1.000000    
      6 Al    c    0.247503 *  0.510481 *  0.822267 *   3.00000    1.000000    
      7 Al    c    0.244333 *  0.505413 *  0.168338 *   3.00000    1.000000    
      8 Al    c    0.106275 *  0.040190 *  0.321343 *   3.00000    1.000000    
      9 Al    c    0.118807 *  0.036331 *  0.666946 *   3.00000    1.000000    
     10 Al    c    0.485589 *  0.533587 *  0.485238 *   3.00000    1.000000    
     11 Al    c    0.614791 *  0.013010 *  0.312573 *   3.00000    1.000000    
     12 Al    c    0.748548 *  0.502789 *  0.820410 *   3.00000    1.000000    
     13 O     c    0.173336 *  0.852078 *  0.497476 *  -2.00000    1.000000    
     14 O     c    0.068087 *  0.231467 *  0.847627 *  -2.00000    1.000000    
     15 O     c    0.205529 *  0.669890 *  0.994665 *  -2.00000    1.000000    
     16 O     c    0.299844 *  0.311771 *  0.363386 *  -2.00000    1.000000    
     17 O     c    0.429604 *  0.770526 *  0.739700 *  -2.00000    1.000000    
     18 O     c    0.791415 *  0.308084 *  0.631956 *  -2.00000    1.000000    
     19 O     c    0.417785 *  0.762074 *  0.259739 *  -2.00000    1.000000    
     20 O     c    0.080165 *  0.215533 *  0.139555 *  -2.00000    1.000000    
     21 O     c    0.704201 *  0.687857 *  0.978925 *  -2.00000    1.000000    
     22 O     c    0.780407 *  0.293700 *  0.371007 *  -2.00000    1.000000    
     23 O     c    0.643734 *  0.838893 *  0.495693 *  -2.00000    1.000000    
     24 O     c    0.565636 *  0.235530 *  0.850958 *  -2.00000    1.000000    
     25 O     c    0.937118 *  0.773049 *  0.254337 *  -2.00000    1.000000    
     26 O     c    0.554603 *  0.207743 *  0.137195 *  -2.00000    1.000000    
     27 O     c    0.935552 *  0.767476 *  0.736191 *  -2.00000    1.000000    
     28 O     c    0.309839 *  0.315335 *  0.628992 *  -2.00000    1.000000    
--------------------------------------------------------------------------------



********************************************************************************
*  General input information                                                   *
********************************************************************************

  Species output for all configurations : 

--------------------------------------------------------------------------------
  Species    Type    Atomic    Atomic    Charge       Radii (Angs)     Library
                     Number     Mass       (e)     Cova   Ionic  VDW   Symbol
--------------------------------------------------------------------------------
    Mg       Core       12      24.31   2.000000   1.100  0.000  1.640          
    Al       Core       13      26.98   3.000000   1.350  0.000  2.050          
    O        Core        8      16.00  -2.000000   0.730  0.000  1.360          
--------------------------------------------------------------------------------


  Lattice summation method               =    Ewald          (3-D)
                                         =    Parry          (2-D)
                                         =    Saunders et al (1-D)
  Accuracy factor for lattice sums       =   12.000


  Analytic derivatives to be used

  Time limit = Infinity

  Maximum range for interatomic potentials =    100000.000000 Angstroms

  General interatomic potentials :

--------------------------------------------------------------------------------
Atom  Types   Potential      Parameter       Value         Units   Cutoffs(Ang)
  1     2                                                            Min /  Max 
--------------------------------------------------------------------------------
O    c Mg   c Lennard       Lennard-Jones A  1.5000000    eV*Ang^m  0.000  6.000
                            Lennard-Jones B  0.0000000    eV*Ang^n  
                            Exponent m        12          None
                            Exponent n         6          None
--------------------------------------------------------------------------------
O    c Al   c Lennard       Lennard-Jones A  1.5000000    eV*Ang^m  0.000  6.000
                            Lennard-Jones B  0.0000000    eV*Ang^n  
                            Exponent m        12          None
                            Exponent n         6          None
--------------------------------------------------------------------------------
O    c O    c Lennard       Lennard-Jones A  1.5000000    eV*Ang^m  0.000  6.000
                            Lennard-Jones B  0.0000000    eV*Ang^n  
                            Exponent m        12          None
                            Exponent n         6          None
--------------------------------------------------------------------------------
Mg   c Mg   c Lennard       Lennard-Jones A  1.5000000    eV*Ang^m  0.000  6.000
                            Lennard-Jones B  0.0000000    eV*Ang^n  
                            Exponent m        12          None
                            Exponent n         6          None
--------------------------------------------------------------------------------
Mg   c Al   c Lennard       Lennard-Jones A  1.5000000    eV*Ang^m  0.000  6.000
                            Lennard-Jones B  0.0000000    eV*Ang^n  
                            Exponent m        12          None
                            Exponent n         6          None
--------------------------------------------------------------------------------
Al   c Al   c Lennard       Lennard-Jones A  1.5000000    eV*Ang^m  0.000  6.000
                            Lennard-Jones B  0.0000000    eV*Ang^n  
                            Exponent m        12          None
                            Exponent n         6          None
--------------------------------------------------------------------------------
O    c Mg   c Buckingham    Buckingham A     1428.5000    eV        0.000  7.000
                            Buckingham rho  0.29450000    Ang       
                            Buckingham C     0.0000000    eV*Ang^6  
--------------------------------------------------------------------------------
O    c Al   c Buckingham    Buckingham A     1114.9000    eV        0.000  7.000
                            Buckingham rho  0.31180000    Ang       
                            Buckingham C     0.0000000    eV*Ang^6  
--------------------------------------------------------------------------------
O    c O    c Buckingham    Buckingham A     2023.8000    eV        0.000  7.000
                            Buckingham rho  0.26740000    Ang       
                            Buckingham C     0.0000000    eV*Ang^6  
--------------------------------------------------------------------------------

********************************************************************************
*  Output for configuration   1                                                *
********************************************************************************


  Components of enthalpy : 

--------------------------------------------------------------------------------
  Interatomic potentials     =         217.83941176 eV    
  Monopole - monopole (real) =        -502.77342131 eV    
  Monopole - monopole (recip)=        -492.84698029 eV    
  Monopole - monopole (total)=        -995.62040159 eV    
  Pressure*volume            =         125.63488210 eV    
--------------------------------------------------------------------------------
  Total lattice enthalpy     =        -652.14610774 eV    
--------------------------------------------------------------------------------
  Total lattice enthalpy     =          -62922.1304 kJ/(mole unit cells)
--------------------------------------------------------------------------------


  Number of variables =       81

  Maximum number of calculations  =           850
  Maximum Hessian update interval =            10
  Maximum step size               =   1.000000000
  Maximum parameter tolerance     =   0.000010000
  Maximum function  tolerance     =   0.000010000
  Maximum gradient  tolerance     =   0.001000000
  Maximum gradient  component     =   0.010000000

  Conjugate gradient optimiser to be used

  Lower half triangular hessian to be used

  Minimiser to switch to RFO
  When gradient norm is less than     0.010000

  Start of bulk optimisation :

  Cycle:      0 Energy:      -652.146108  Gnorm:      0.005544  CPU:    0.037
  ** Hessian has required structure
  Cycle:      1 Energy:      -652.146134  Gnorm:      0.000005  CPU:    0.139
  ** Hessian has required structure


  **** Optimisation achieved ****


  Final enthalpy =    -652.14613364 eV      
  Final Gnorm    =       0.00000001

  Components of enthalpy : 

--------------------------------------------------------------------------------
  Interatomic potentials     =         217.81714094 eV    
  Monopole - monopole (real) =        -502.75193774 eV    
  Monopole - monopole (recip)=        -492.84621894 eV    
  Monopole - monopole (total)=        -995.59815668 eV    
  Pressure*volume            =         125.63488210 eV    
--------------------------------------------------------------------------------
  Total lattice enthalpy     =        -652.14613364 eV    
--------------------------------------------------------------------------------
  Total lattice enthalpy     =          -62922.1329 kJ/(mole unit cells)
--------------------------------------------------------------------------------

  Final fractional coordinates of atoms :

--------------------------------------------------------------------------------
   No.  Atomic        x           y          z          Radius
        Label       (Frac)      (Frac)     (Frac)       (Angs) 
--------------------------------------------------------------------------------
     1  Mg    c     0.870861    0.006574    0.001760    0.000000
     2  Mg    c     0.742514    0.504791    0.163233    0.000000
     3  Mg    c     0.373545    0.998663    0.994064    0.000000
     4  Mg    c     0.985991    0.542094    0.492508    0.000000
     5  Al    c     0.620268    0.024066    0.670662    0.000000
     6  Al    c     0.247471    0.510440    0.822237    0.000000
     7  Al    c     0.244354    0.505384    0.168354    0.000000
     8  Al    c     0.106307    0.040137    0.321342    0.000000
     9  Al    c     0.118783    0.036283    0.666956    0.000000
    10  Al    c     0.485607    0.533497    0.485235    0.000000
    11  Al    c     0.614821    0.012932    0.312562    0.000000
    12  Al    c     0.748520    0.502755    0.820376    0.000000
    13  O     c     0.173361    0.851956    0.497470    0.000000
    14  O     c     0.068056    0.231402    0.847631    0.000000
    15  O     c     0.205500    0.669946    0.994656    0.000000
    16  O     c     0.299879    0.311687    0.363389    0.000000
    17  O     c     0.429609    0.770442    0.739694    0.000000
    18  O     c     0.791376    0.308068    0.631936    0.000000
    19  O     c     0.417811    0.761994    0.259749    0.000000
    20  O     c     0.080186    0.215470    0.139535    0.000000
    21  O     c     0.704181    0.687904    0.978967    0.000000
    22  O     c     0.780446    0.293656    0.371003    0.000000
    23  O     c     0.643751    0.838843    0.495691    0.000000
    24  O     c     0.565621    0.235451    0.850951    0.000000
    25  O     c     0.937153    0.772951    0.254350    0.000000
    26  O     c     0.554621    0.207725    0.137176    0.000000
    27  O     c     0.935538    0.767405    0.736182    0.000000
    28  O     c     0.309790    0.315287    0.628989    0.000000
--------------------------------------------------------------------------------

  Final internal derivatives :

--------------------------------------------------------------------------------
   No.  Atomic          a             b             c           Radius
        Label          (eV)          (eV)          (eV)        (eV/Angs)
--------------------------------------------------------------------------------
      1 Mg    c       0.000000      0.000000      0.000000      0.000000
      2 Mg    c      -0.000000     -0.000000      0.000000      0.000000
      3 Mg    c       0.000000     -0.000000     -0.000000      0.000000
      4 Mg    c       0.000000     -0.000000      0.000000      0.000000
      5 Al    c      -0.000000      0.000000      0.000000      0.000000
      6 Al    c       0.000000      0.000000     -0.000000      0.000000
      7 Al    c      -0.000000     -0.000000      0.000000      0.000000
      8 Al    c       0.000000      0.000000      0.000000      0.000000
      9 Al    c       0.000000      0.000000      0.000000      0.000000
     10 Al    c      -0.000000     -0.000000     -0.000000      0.000000
     11 Al    c      -0.000000     -0.000000      0.000000      0.000000
     12 Al    c       0.000000      0.000000      0.000001      0.000000
     13 O     c       0.000000     -0.000000     -0.000000      0.000000
     14 O     c       0.000000      0.000000      0.000000      0.000000
     15 O     c      -0.000000      0.000000      0.000000      0.000000
     16 O     c      -0.000000      0.000000      0.000000      0.000000
     17 O     c      -0.000000     -0.000000      0.000000      0.000000
     18 O     c       0.000000      0.000000     -0.000000      0.000000
     19 O     c       0.000000     -0.000000      0.000000      0.000000
     20 O     c      -0.000000      0.000000     -0.000000      0.000000
     21 O     c      -0.000000     -0.000000     -0.000001      0.000000
     22 O     c       0.000000      0.000000      0.000000      0.000000
     23 O     c       0.000000     -0.000000     -0.000000      0.000000
     24 O     c       0.000000     -0.000000      0.000000      0.000000
     25 O     c      -0.000000     -0.000000     -0.000000      0.000000
     26 O     c       0.000000     -0.000000     -0.000000      0.000000
     27 O     c      -0.000000     -0.000000      0.000000      0.000000
     28 O     c      -0.000000      0.000000     -0.000000      0.000000
--------------------------------------------------------------------------------
  Maximum abs         0.000000      0.000000      0.000001      0.000000
--------------------------------------------------------------------------------


  Time to end of optimisation =       0.2085 seconds


  Peak dynamic memory used =       2.01 MB 


  Timing analysis for GULP :

--------------------------------------------------------------------------------
  Task / Subroutine                                          Time (Seconds)
--------------------------------------------------------------------------------
  Calculation of reciprocal space energy and derivatives          0.0378
  Calculation of real space energy and derivatives                0.1263
  Calculation and manipulation of Hessian matrix                  0.0318
--------------------------------------------------------------------------------
  Total CPU time                                                  0.2086
--------------------------------------------------------------------------------


  Job Finished at 12:51.18 10th June       2024                               

