********************************************************************************
*                       GENERAL UTILITY LATTICE PROGRAM                        *
*                                 Julian Gale                                  *
*                       Curtin Institute for Computation                       *
*                    School of Molecular and Life Sciences                     *
*                    Curtin University, Western Australia                      *
********************************************************************************
* Version = 6.0.0 * Last modified =  12th July 2021                            *
********************************************************************************
*  optimise     - perform optimisation run                                     *
*  conv         - constant volume calculation                                  *
*  nosymmetry   - turn off symmetry after initial structure generation         *
*  conjugate    - use conjugate gradients minimiser                            *
********************************************************************************

  Job Started  at 12:51.20 10th June       2024                               

  Number of CPUs =     1


  Total number of configurations input =      1

********************************************************************************
*  Input for Configuration =   1                                               *
********************************************************************************

  Formula = Mg4Al8O16                                                   

  Number of irreducible atoms/shells =      28


  Total number atoms/shells =      28

  Dimensionality = 3               :  Bulk   



  Cartesian lattice vectors (Angstroms) :

        4.572268    0.000000    0.000000
        0.000000    8.718340    0.000000
       -1.522506    0.000000    5.052445

  Cell parameters (Angstroms/Degrees):

  a =       4.5723    alpha =  90.0000
  b =       8.7183    beta  = 106.7697
  c =       5.2769    gamma =  90.0000

  Initial cell volume =         201.403528 Angs**3

  Temperature of configuration =   0.00     K 

  Pressure of configuration =       100.000 GPa 

  Fractional coordinates of asymmetric unit :

--------------------------------------------------------------------------------
   No.  Atomic       x           y          z         Charge      Occupancy
        Label      (Frac)      (Frac)     (Frac)        (e)         (Frac)  
--------------------------------------------------------------------------------
      1 Mg    c    0.342253    0.709510    0.402892     2.00000    1.000000    
      2 Mg    c    0.879584 *  0.209510 *  0.287225 *   2.00000    1.000000    
      3 Mg    c    0.342253 *  0.709510 *  0.902892 *   2.00000    1.000000    
      4 Mg    c    0.879584 *  0.209510 *  0.787225 *   2.00000    1.000000    
      5 Al    c    0.847678 *  0.536057 *  0.029248 *   3.00000    1.000000    
      6 Al    c    0.847678 *  0.882962 *  0.529248 *   3.00000    1.000000    
      7 Al    c    0.374159 *  0.036057 *  0.160868 *   3.00000    1.000000    
      8 Al    c    0.374159 *  0.382962 *  0.160868 *   3.00000    1.000000    
      9 Al    c    0.847678 *  0.536057 *  0.529248 *   3.00000    1.000000    
     10 Al    c    0.847678 *  0.882962 *  0.029248 *   3.00000    1.000000    
     11 Al    c    0.374159 *  0.036057 *  0.660868 *   3.00000    1.000000    
     12 Al    c    0.374159 *  0.382962 *  0.660868 *   3.00000    1.000000    
     13 O     c    0.110918 *  0.959510 *  0.845058 *  -2.00000    1.000000    
     14 O     c    0.209797 *  0.209510 *  0.619778 *  -2.00000    1.000000    
     15 O     c    0.573323 *  0.850769 *  0.710659 *  -2.00000    1.000000    
     16 O     c    0.110918 *  0.459510 *  0.345058 *  -2.00000    1.000000    
     17 O     c    0.012040 *  0.709510 *  0.070339 *  -2.00000    1.000000    
     18 O     c    0.110918 *  0.459510 *  0.845058 *  -2.00000    1.000000    
     19 O     c    0.648514 *  0.350769 *  0.479457 *  -2.00000    1.000000    
     20 O     c    0.573323 *  0.568251 *  0.210659 *  -2.00000    1.000000    
     21 O     c    0.648514 *  0.068251 *  0.479457 *  -2.00000    1.000000    
     22 O     c    0.209797 *  0.209510 *  0.119778 *  -2.00000    1.000000    
     23 O     c    0.648514 *  0.350769 *  0.979457 *  -2.00000    1.000000    
     24 O     c    0.573323 *  0.568251 *  0.710659 *  -2.00000    1.000000    
     25 O     c    0.573323 *  0.850769 *  0.210659 *  -2.00000    1.000000    
     26 O     c    0.648514 *  0.068251 *  0.979457 *  -2.00000    1.000000    
     27 O     c    0.110918 *  0.959510 *  0.345058 *  -2.00000    1.000000    
     28 O     c    0.012040 *  0.709510 *  0.570339 *  -2.00000    1.000000    
--------------------------------------------------------------------------------



********************************************************************************
*  General input information                                                   *
********************************************************************************

  Species output for all configurations : 

--------------------------------------------------------------------------------
  Species    Type    Atomic    Atomic    Charge       Radii (Angs)     Library
                     Number     Mass       (e)     Cova   Ionic  VDW   Symbol
--------------------------------------------------------------------------------
    Mg       Core       12      24.31   2.000000   1.100  0.000  1.640          
    Al       Core       13      26.98   3.000000   1.350  0.000  2.050          
    O        Core        8      16.00  -2.000000   0.730  0.000  1.360          
--------------------------------------------------------------------------------


  Lattice summation method               =    Ewald          (3-D)
                                         =    Parry          (2-D)
                                         =    Saunders et al (1-D)
  Accuracy factor for lattice sums       =   12.000


  Analytic derivatives to be used

  Time limit = Infinity

  Maximum range for interatomic potentials =    100000.000000 Angstroms

  General interatomic potentials :

--------------------------------------------------------------------------------
Atom  Types   Potential      Parameter       Value         Units   Cutoffs(Ang)
  1     2                                                            Min /  Max 
--------------------------------------------------------------------------------
O    c Mg   c Lennard       Lennard-Jones A  1.5000000    eV*Ang^m  0.000  6.000
                            Lennard-Jones B  0.0000000    eV*Ang^n  
                            Exponent m        12          None
                            Exponent n         6          None
--------------------------------------------------------------------------------
O    c Al   c Lennard       Lennard-Jones A  1.5000000    eV*Ang^m  0.000  6.000
                            Lennard-Jones B  0.0000000    eV*Ang^n  
                            Exponent m        12          None
                            Exponent n         6          None
--------------------------------------------------------------------------------
O    c O    c Lennard       Lennard-Jones A  1.5000000    eV*Ang^m  0.000  6.000
                            Lennard-Jones B  0.0000000    eV*Ang^n  
                            Exponent m        12          None
                            Exponent n         6          None
--------------------------------------------------------------------------------
Mg   c Mg   c Lennard       Lennard-Jones A  1.5000000    eV*Ang^m  0.000  6.000
                            Lennard-Jones B  0.0000000    eV*Ang^n  
                            Exponent m        12          None
                            Exponent n         6          None
--------------------------------------------------------------------------------
Mg   c Al   c Lennard       Lennard-Jones A  1.5000000    eV*Ang^m  0.000  6.000
                            Lennard-Jones B  0.0000000    eV*Ang^n  
                            Exponent m        12          None
                            Exponent n         6          None
--------------------------------------------------------------------------------
Al   c Al   c Lennard       Lennard-Jones A  1.5000000    eV*Ang^m  0.000  6.000
                            Lennard-Jones B  0.0000000    eV*Ang^n  
                            Exponent m        12          None
                            Exponent n         6          None
--------------------------------------------------------------------------------
O    c Mg   c Buckingham    Buckingham A     1428.5000    eV        0.000  7.000
                            Buckingham rho  0.29450000    Ang       
                            Buckingham C     0.0000000    eV*Ang^6  
--------------------------------------------------------------------------------
O    c Al   c Buckingham    Buckingham A     1114.9000    eV        0.000  7.000
                            Buckingham rho  0.31180000    Ang       
                            Buckingham C     0.0000000    eV*Ang^6  
--------------------------------------------------------------------------------
O    c O    c Buckingham    Buckingham A     2023.8000    eV        0.000  7.000
                            Buckingham rho  0.26740000    Ang       
                            Buckingham C     0.0000000    eV*Ang^6  
--------------------------------------------------------------------------------

********************************************************************************
*  Output for configuration   1                                                *
********************************************************************************


  Components of enthalpy : 

--------------------------------------------------------------------------------
  Interatomic potentials     =         219.25474933 eV    
  Monopole - monopole (real) =        -505.66447961 eV    
  Monopole - monopole (recip)=        -492.78499396 eV    
  Monopole - monopole (total)=        -998.44947358 eV    
  Pressure*volume            =         125.70522459 eV    
--------------------------------------------------------------------------------
  Total lattice enthalpy     =        -653.48949965 eV    
--------------------------------------------------------------------------------
  Total lattice enthalpy     =          -63051.7472 kJ/(mole unit cells)
--------------------------------------------------------------------------------


  Number of variables =       81

  Maximum number of calculations  =           850
  Maximum Hessian update interval =            10
  Maximum step size               =   1.000000000
  Maximum parameter tolerance     =   0.000010000
  Maximum function  tolerance     =   0.000010000
  Maximum gradient  tolerance     =   0.001000000
  Maximum gradient  component     =   0.010000000

  Conjugate gradient optimiser to be used

  Lower half triangular hessian to be used

  Minimiser to switch to RFO
  When gradient norm is less than     0.010000

  Start of bulk optimisation :

  Cycle:      0 Energy:      -653.489500  Gnorm:      0.004849  CPU:    0.034
  ** Hessian has required structure
  Cycle:      1 Energy:      -653.489526  Gnorm:      0.000002  CPU:    0.130
  ** Hessian has required structure


  **** Optimisation achieved ****


  Final enthalpy =    -653.48952560 eV      
  Final Gnorm    =       0.00000000

  Components of enthalpy : 

--------------------------------------------------------------------------------
  Interatomic potentials     =         219.23108405 eV    
  Monopole - monopole (real) =        -505.64144610 eV    
  Monopole - monopole (recip)=        -492.78438814 eV    
  Monopole - monopole (total)=        -998.42583424 eV    
  Pressure*volume            =         125.70522459 eV    
--------------------------------------------------------------------------------
  Total lattice enthalpy     =        -653.48952560 eV    
--------------------------------------------------------------------------------
  Total lattice enthalpy     =          -63051.7497 kJ/(mole unit cells)
--------------------------------------------------------------------------------

  Final fractional coordinates of atoms :

--------------------------------------------------------------------------------
   No.  Atomic        x           y          z          Radius
        Label       (Frac)      (Frac)     (Frac)       (Angs) 
--------------------------------------------------------------------------------
     1  Mg    c     0.342253    0.709510    0.402892    0.000000
     2  Mg    c     0.879504    0.209510    0.287205    0.000000
     3  Mg    c     0.342253    0.709510    0.902892    0.000000
     4  Mg    c     0.879504    0.209510    0.787205    0.000000
     5  Al    c     0.847658    0.536035    0.029243    0.000000
     6  Al    c     0.847658    0.882985    0.529243    0.000000
     7  Al    c     0.374100    0.036035    0.160854    0.000000
     8  Al    c     0.374100    0.382985    0.160854    0.000000
     9  Al    c     0.847658    0.536035    0.529243    0.000000
    10  Al    c     0.847658    0.882985    0.029243    0.000000
    11  Al    c     0.374100    0.036035    0.660854    0.000000
    12  Al    c     0.374100    0.382985    0.660854    0.000000
    13  O     c     0.110879    0.959510    0.845048    0.000000
    14  O     c     0.209656    0.209510    0.619743    0.000000
    15  O     c     0.573275    0.850762    0.710647    0.000000
    16  O     c     0.110879    0.459510    0.345048    0.000000
    17  O     c     0.012102    0.709510    0.070354    0.000000
    18  O     c     0.110879    0.459510    0.845048    0.000000
    19  O     c     0.648483    0.350762    0.479449    0.000000
    20  O     c     0.573275    0.568258    0.210647    0.000000
    21  O     c     0.648483    0.068258    0.479449    0.000000
    22  O     c     0.209656    0.209510    0.119743    0.000000
    23  O     c     0.648483    0.350762    0.979449    0.000000
    24  O     c     0.573275    0.568258    0.710647    0.000000
    25  O     c     0.573275    0.850762    0.210647    0.000000
    26  O     c     0.648483    0.068258    0.979449    0.000000
    27  O     c     0.110879    0.959510    0.345048    0.000000
    28  O     c     0.012102    0.709510    0.570354    0.000000
--------------------------------------------------------------------------------

  Final internal derivatives :

--------------------------------------------------------------------------------
   No.  Atomic          a             b             c           Radius
        Label          (eV)          (eV)          (eV)        (eV/Angs)
--------------------------------------------------------------------------------
      1 Mg    c       0.000000      0.000000      0.000000      0.000000
      2 Mg    c       0.000000      0.000000      0.000000      0.000000
      3 Mg    c      -0.000000      0.000000      0.000000      0.000000
      4 Mg    c       0.000000     -0.000000      0.000000      0.000000
      5 Al    c       0.000000      0.000000     -0.000000      0.000000
      6 Al    c       0.000000     -0.000000     -0.000000      0.000000
      7 Al    c      -0.000000      0.000000     -0.000000      0.000000
      8 Al    c      -0.000000     -0.000000      0.000000      0.000000
      9 Al    c       0.000000      0.000000      0.000000      0.000000
     10 Al    c       0.000000     -0.000000      0.000000      0.000000
     11 Al    c      -0.000000      0.000000      0.000000      0.000000
     12 Al    c      -0.000000     -0.000000     -0.000000      0.000000
     13 O     c      -0.000000     -0.000000     -0.000000      0.000000
     14 O     c       0.000000      0.000000      0.000000      0.000000
     15 O     c      -0.000000      0.000000      0.000000      0.000000
     16 O     c      -0.000000      0.000000      0.000000      0.000000
     17 O     c      -0.000000      0.000000      0.000000      0.000000
     18 O     c       0.000000     -0.000000      0.000000      0.000000
     19 O     c       0.000000      0.000000     -0.000000      0.000000
     20 O     c      -0.000000     -0.000000     -0.000000      0.000000
     21 O     c       0.000000     -0.000000      0.000000      0.000000
     22 O     c       0.000000      0.000000     -0.000000      0.000000
     23 O     c       0.000000      0.000000     -0.000000      0.000000
     24 O     c      -0.000000     -0.000000     -0.000000      0.000000
     25 O     c      -0.000000      0.000000      0.000000      0.000000
     26 O     c       0.000000     -0.000000     -0.000000      0.000000
     27 O     c       0.000000      0.000000     -0.000000      0.000000
     28 O     c      -0.000000      0.000000      0.000000      0.000000
--------------------------------------------------------------------------------
  Maximum abs         0.000000      0.000000      0.000000      0.000000
--------------------------------------------------------------------------------


  Time to end of optimisation =       0.2145 seconds


  Peak dynamic memory used =       2.01 MB 


  Timing analysis for GULP :

--------------------------------------------------------------------------------
  Task / Subroutine                                          Time (Seconds)
--------------------------------------------------------------------------------
  Calculation of reciprocal space energy and derivatives          0.0343
  Calculation of real space energy and derivatives                0.1371
  Calculation and manipulation of Hessian matrix                  0.0308
--------------------------------------------------------------------------------
  Total CPU time                                                  0.2146
--------------------------------------------------------------------------------


  Job Finished at 12:51.21 10th June       2024                               

