********************************************************************************
*                       GENERAL UTILITY LATTICE PROGRAM                        *
*                                 Julian Gale                                  *
*                       Curtin Institute for Computation                       *
*                    School of Molecular and Life Sciences                     *
*                    Curtin University, Western Australia                      *
********************************************************************************
* Version = 6.0.0 * Last modified =  12th July 2021                            *
********************************************************************************
*  optimise     - perform optimisation run                                     *
*  conv         - constant volume calculation                                  *
*  nosymmetry   - turn off symmetry after initial structure generation         *
*  conjugate    - use conjugate gradients minimiser                            *
********************************************************************************

  Job Started  at 12:51.21 10th June       2024                               

  Number of CPUs =     1


  Total number of configurations input =      1

********************************************************************************
*  Input for Configuration =   1                                               *
********************************************************************************

  Formula = Mg4Al8O16                                                   

  Number of irreducible atoms/shells =      28


  Total number atoms/shells =      28

  Dimensionality = 3               :  Bulk   



  Cartesian lattice vectors (Angstroms) :

        8.755641    0.000000    0.000000
        0.000000    2.638429    0.000000
        0.000000    0.000000    8.718340

  Cell parameters (Angstroms/Degrees):

  a =       8.7556    alpha =  90.0000
  b =       2.6384    beta  =  90.0000
  c =       8.7183    gamma =  90.0000

  Initial cell volume =         201.403568 Angs**3

  Temperature of configuration =   0.00     K 

  Pressure of configuration =       100.000 GPa 

  Fractional coordinates of asymmetric unit :

--------------------------------------------------------------------------------
   No.  Atomic       x           y          z         Charge      Occupancy
        Label      (Frac)      (Frac)     (Frac)        (e)         (Frac)  
--------------------------------------------------------------------------------
      1 Mg    c    0.909445    0.009188    0.001987     2.00000    1.000000    
      2 Mg    c    0.140780 *  0.009188 *  0.501987 *   2.00000    1.000000    
      3 Mg    c    0.409445 *  0.509188 *  0.001987 *   2.00000    1.000000    
      4 Mg    c    0.640779 *  0.509188 *  0.501987 *   2.00000    1.000000    
      5 Al    c    0.893492 *  0.509188 *  0.328534 *   3.00000    1.000000    
      6 Al    c    0.156732 *  0.509188 *  0.175439 *   3.00000    1.000000    
      7 Al    c    0.393492 *  0.009188 *  0.675439 *   3.00000    1.000000    
      8 Al    c    0.893492 *  0.509188 *  0.675439 *   3.00000    1.000000    
      9 Al    c    0.393492 *  0.009188 *  0.328534 *   3.00000    1.000000    
     10 Al    c    0.656732 *  0.009188 *  0.175439 *   3.00000    1.000000    
     11 Al    c    0.156732 *  0.509188 *  0.828534 *   3.00000    1.000000    
     12 Al    c    0.656732 *  0.009188 *  0.828534 *   3.00000    1.000000    
     13 O     c    0.025112 *  0.009188 *  0.251987 *  -2.00000    1.000000    
     14 O     c    0.793910 *  0.509188 *  0.143246 *  -2.00000    1.000000    
     15 O     c    0.793910 *  0.509188 *  0.860728 *  -2.00000    1.000000    
     16 O     c    0.074552 *  0.509188 *  0.001987 *  -2.00000    1.000000    
     17 O     c    0.256315 *  0.509188 *  0.360728 *  -2.00000    1.000000    
     18 O     c    0.975673 *  0.509188 *  0.501987 *  -2.00000    1.000000    
     19 O     c    0.025112 *  0.009188 *  0.751987 *  -2.00000    1.000000    
     20 O     c    0.256315 *  0.509188 *  0.643246 *  -2.00000    1.000000    
     21 O     c    0.525112 *  0.509188 *  0.251987 *  -2.00000    1.000000    
     22 O     c    0.293910 *  0.009188 *  0.143246 *  -2.00000    1.000000    
     23 O     c    0.574552 *  0.009188 *  0.001987 *  -2.00000    1.000000    
     24 O     c    0.293910 *  0.009188 *  0.860728 *  -2.00000    1.000000    
     25 O     c    0.756315 *  0.009188 *  0.360728 *  -2.00000    1.000000    
     26 O     c    0.475673 *  0.009188 *  0.501987 *  -2.00000    1.000000    
     27 O     c    0.525112 *  0.509188 *  0.751987 *  -2.00000    1.000000    
     28 O     c    0.756315 *  0.009188 *  0.643246 *  -2.00000    1.000000    
--------------------------------------------------------------------------------



********************************************************************************
*  General input information                                                   *
********************************************************************************

  Species output for all configurations : 

--------------------------------------------------------------------------------
  Species    Type    Atomic    Atomic    Charge       Radii (Angs)     Library
                     Number     Mass       (e)     Cova   Ionic  VDW   Symbol
--------------------------------------------------------------------------------
    Mg       Core       12      24.31   2.000000   1.100  0.000  1.640          
    Al       Core       13      26.98   3.000000   1.350  0.000  2.050          
    O        Core        8      16.00  -2.000000   0.730  0.000  1.360          
--------------------------------------------------------------------------------


  Lattice summation method               =    Ewald          (3-D)
                                         =    Parry          (2-D)
                                         =    Saunders et al (1-D)
  Accuracy factor for lattice sums       =   12.000


  Analytic derivatives to be used

  Time limit = Infinity

  Maximum range for interatomic potentials =    100000.000000 Angstroms

  General interatomic potentials :

--------------------------------------------------------------------------------
Atom  Types   Potential      Parameter       Value         Units   Cutoffs(Ang)
  1     2                                                            Min /  Max 
--------------------------------------------------------------------------------
O    c Mg   c Lennard       Lennard-Jones A  1.5000000    eV*Ang^m  0.000  6.000
                            Lennard-Jones B  0.0000000    eV*Ang^n  
                            Exponent m        12          None
                            Exponent n         6          None
--------------------------------------------------------------------------------
O    c Al   c Lennard       Lennard-Jones A  1.5000000    eV*Ang^m  0.000  6.000
                            Lennard-Jones B  0.0000000    eV*Ang^n  
                            Exponent m        12          None
                            Exponent n         6          None
--------------------------------------------------------------------------------
O    c O    c Lennard       Lennard-Jones A  1.5000000    eV*Ang^m  0.000  6.000
                            Lennard-Jones B  0.0000000    eV*Ang^n  
                            Exponent m        12          None
                            Exponent n         6          None
--------------------------------------------------------------------------------
Mg   c Mg   c Lennard       Lennard-Jones A  1.5000000    eV*Ang^m  0.000  6.000
                            Lennard-Jones B  0.0000000    eV*Ang^n  
                            Exponent m        12          None
                            Exponent n         6          None
--------------------------------------------------------------------------------
Mg   c Al   c Lennard       Lennard-Jones A  1.5000000    eV*Ang^m  0.000  6.000
                            Lennard-Jones B  0.0000000    eV*Ang^n  
                            Exponent m        12          None
                            Exponent n         6          None
--------------------------------------------------------------------------------
Al   c Al   c Lennard       Lennard-Jones A  1.5000000    eV*Ang^m  0.000  6.000
                            Lennard-Jones B  0.0000000    eV*Ang^n  
                            Exponent m        12          None
                            Exponent n         6          None
--------------------------------------------------------------------------------
O    c Mg   c Buckingham    Buckingham A     1428.5000    eV        0.000  7.000
                            Buckingham rho  0.29450000    Ang       
                            Buckingham C     0.0000000    eV*Ang^6  
--------------------------------------------------------------------------------
O    c Al   c Buckingham    Buckingham A     1114.9000    eV        0.000  7.000
                            Buckingham rho  0.31180000    Ang       
                            Buckingham C     0.0000000    eV*Ang^6  
--------------------------------------------------------------------------------
O    c O    c Buckingham    Buckingham A     2023.8000    eV        0.000  7.000
                            Buckingham rho  0.26740000    Ang       
                            Buckingham C     0.0000000    eV*Ang^6  
--------------------------------------------------------------------------------

********************************************************************************
*  Output for configuration   1                                                *
********************************************************************************


  Components of enthalpy : 

--------------------------------------------------------------------------------
  Interatomic potentials     =         219.25479237 eV    
  Monopole - monopole (real) =        -505.66457824 eV    
  Monopole - monopole (recip)=        -492.78496282 eV    
  Monopole - monopole (total)=        -998.44954106 eV    
  Pressure*volume            =         125.70524926 eV    
--------------------------------------------------------------------------------
  Total lattice enthalpy     =        -653.48949943 eV    
--------------------------------------------------------------------------------
  Total lattice enthalpy     =          -63051.7472 kJ/(mole unit cells)
--------------------------------------------------------------------------------


  Number of variables =       81

  Maximum number of calculations  =           850
  Maximum Hessian update interval =            10
  Maximum step size               =   1.000000000
  Maximum parameter tolerance     =   0.000010000
  Maximum function  tolerance     =   0.000010000
  Maximum gradient  tolerance     =   0.001000000
  Maximum gradient  component     =   0.010000000

  Conjugate gradient optimiser to be used

  Lower half triangular hessian to be used

  Minimiser to switch to RFO
  When gradient norm is less than     0.010000

  Start of bulk optimisation :

  Cycle:      0 Energy:      -653.489499  Gnorm:      0.005894  CPU:    0.028
  ** Hessian has required structure
  Cycle:      1 Energy:      -653.489526  Gnorm:      0.000002  CPU:    0.117
  ** Hessian has required structure


  **** Optimisation achieved ****


  Final enthalpy =    -653.48952565 eV      
  Final Gnorm    =       0.00000000

  Components of enthalpy : 

--------------------------------------------------------------------------------
  Interatomic potentials     =         219.23099782 eV    
  Monopole - monopole (real) =        -505.64141675 eV    
  Monopole - monopole (recip)=        -492.78435597 eV    
  Monopole - monopole (total)=        -998.42577273 eV    
  Pressure*volume            =         125.70524926 eV    
--------------------------------------------------------------------------------
  Total lattice enthalpy     =        -653.48952565 eV    
--------------------------------------------------------------------------------
  Total lattice enthalpy     =          -63051.7497 kJ/(mole unit cells)
--------------------------------------------------------------------------------

  Final fractional coordinates of atoms :

--------------------------------------------------------------------------------
   No.  Atomic        x           y          z          Radius
        Label       (Frac)      (Frac)     (Frac)       (Angs) 
--------------------------------------------------------------------------------
     1  Mg    c     0.909445    0.009188    0.001987    0.000000
     2  Mg    c     0.140819    0.009188    0.501987    0.000000
     3  Mg    c     0.409445    0.509188    0.001987    0.000000
     4  Mg    c     0.640819    0.509188    0.501987    0.000000
     5  Al    c     0.893522    0.509188    0.328512    0.000000
     6  Al    c     0.156743    0.509188    0.175462    0.000000
     7  Al    c     0.393522    0.009188    0.675462    0.000000
     8  Al    c     0.893522    0.509188    0.675462    0.000000
     9  Al    c     0.393522    0.009188    0.328512    0.000000
    10  Al    c     0.656743    0.009188    0.175462    0.000000
    11  Al    c     0.156743    0.509188    0.828512    0.000000
    12  Al    c     0.656743    0.009188    0.828512    0.000000
    13  O     c     0.025132    0.009188    0.251987    0.000000
    14  O     c     0.793934    0.509188    0.143239    0.000000
    15  O     c     0.793934    0.509188    0.860735    0.000000
    16  O     c     0.074521    0.509188    0.001987    0.000000
    17  O     c     0.256330    0.509188    0.360735    0.000000
    18  O     c     0.975744    0.509188    0.501987    0.000000
    19  O     c     0.025132    0.009188    0.751987    0.000000
    20  O     c     0.256330    0.509188    0.643239    0.000000
    21  O     c     0.525132    0.509188    0.251987    0.000000
    22  O     c     0.293934    0.009188    0.143239    0.000000
    23  O     c     0.574521    0.009188    0.001987    0.000000
    24  O     c     0.293934    0.009188    0.860735    0.000000
    25  O     c     0.756330    0.009188    0.360735    0.000000
    26  O     c     0.475744    0.009188    0.501987    0.000000
    27  O     c     0.525132    0.509188    0.751987    0.000000
    28  O     c     0.756330    0.009188    0.643239    0.000000
--------------------------------------------------------------------------------

  Final internal derivatives :

--------------------------------------------------------------------------------
   No.  Atomic          a             b             c           Radius
        Label          (eV)          (eV)          (eV)        (eV/Angs)
--------------------------------------------------------------------------------
      1 Mg    c       0.000000      0.000000      0.000000      0.000000
      2 Mg    c      -0.000000      0.000000     -0.000000      0.000000
      3 Mg    c       0.000000      0.000000      0.000000      0.000000
      4 Mg    c      -0.000000      0.000000      0.000000      0.000000
      5 Al    c       0.000000     -0.000000      0.000000      0.000000
      6 Al    c      -0.000000     -0.000000     -0.000000      0.000000
      7 Al    c       0.000000      0.000000     -0.000000      0.000000
      8 Al    c       0.000000     -0.000000     -0.000000      0.000000
      9 Al    c       0.000000     -0.000000      0.000000      0.000000
     10 Al    c      -0.000000      0.000000     -0.000000      0.000000
     11 Al    c      -0.000000     -0.000000      0.000000      0.000000
     12 Al    c      -0.000000     -0.000000      0.000000      0.000000
     13 O     c       0.000000      0.000000      0.000000      0.000000
     14 O     c       0.000000     -0.000000      0.000000      0.000000
     15 O     c       0.000000      0.000000     -0.000000      0.000000
     16 O     c       0.000000     -0.000000      0.000000      0.000000
     17 O     c      -0.000000      0.000000     -0.000000      0.000000
     18 O     c      -0.000000      0.000000      0.000000      0.000000
     19 O     c      -0.000000      0.000000      0.000000      0.000000
     20 O     c      -0.000000      0.000000      0.000000      0.000000
     21 O     c       0.000000      0.000000     -0.000000      0.000000
     22 O     c       0.000000      0.000000      0.000000      0.000000
     23 O     c       0.000000      0.000000      0.000000      0.000000
     24 O     c       0.000000     -0.000000     -0.000000      0.000000
     25 O     c      -0.000000     -0.000000     -0.000000      0.000000
     26 O     c      -0.000000     -0.000000      0.000000      0.000000
     27 O     c      -0.000000      0.000000     -0.000000      0.000000
     28 O     c      -0.000000     -0.000000      0.000000      0.000000
--------------------------------------------------------------------------------
  Maximum abs         0.000000      0.000000      0.000000      0.000000
--------------------------------------------------------------------------------


  Time to end of optimisation =       0.1744 seconds


  Peak dynamic memory used =       2.01 MB 


  Timing analysis for GULP :

--------------------------------------------------------------------------------
  Task / Subroutine                                          Time (Seconds)
--------------------------------------------------------------------------------
  Calculation of reciprocal space energy and derivatives          0.0387
  Calculation of real space energy and derivatives                0.0951
  Calculation and manipulation of Hessian matrix                  0.0279
  Symmetry generation of equivalent positions                     0.0001
--------------------------------------------------------------------------------
  Total CPU time                                                  0.1745
--------------------------------------------------------------------------------


  Job Finished at 12:51.21 10th June       2024                               

