********************************************************************************
*                       GENERAL UTILITY LATTICE PROGRAM                        *
*                                 Julian Gale                                  *
*                       Curtin Institute for Computation                       *
*                    School of Molecular and Life Sciences                     *
*                    Curtin University, Western Australia                      *
********************************************************************************
* Version = 6.0.0 * Last modified =  12th July 2021                            *
********************************************************************************
*  optimise     - perform optimisation run                                     *
*  conv         - constant volume calculation                                  *
*  nosymmetry   - turn off symmetry after initial structure generation         *
*  conjugate    - use conjugate gradients minimiser                            *
********************************************************************************

  Job Started  at 12:51.21 10th June       2024                               

  Number of CPUs =     1


  Total number of configurations input =      1

********************************************************************************
*  Input for Configuration =   1                                               *
********************************************************************************

  Formula = Mg4Al8O16                                                   

  Number of irreducible atoms/shells =      28


  Total number atoms/shells =      28

  Dimensionality = 3               :  Bulk   



  Cartesian lattice vectors (Angstroms) :

        8.755641    0.000000    0.000000
        0.000000    2.638429    0.000000
        0.000000    0.000000    8.718340

  Cell parameters (Angstroms/Degrees):

  a =       8.7556    alpha =  90.0000
  b =       2.6384    beta  =  90.0000
  c =       8.7183    gamma =  90.0000

  Initial cell volume =         201.403568 Angs**3

  Temperature of configuration =   0.00     K 

  Pressure of configuration =       100.000 GPa 

  Fractional coordinates of asymmetric unit :

--------------------------------------------------------------------------------
   No.  Atomic       x           y          z         Charge      Occupancy
        Label      (Frac)      (Frac)     (Frac)        (e)         (Frac)  
--------------------------------------------------------------------------------
      1 Mg    c    0.995219    0.611590    0.004875     2.00000    1.000000    
      2 Mg    c    0.226553 *  0.611590 *  0.504875 *   2.00000    1.000000    
      3 Mg    c    0.495219 *  0.111590 *  0.004875 *   2.00000    1.000000    
      4 Mg    c    0.726553 *  0.111590 *  0.504875 *   2.00000    1.000000    
      5 Al    c    0.979266 *  0.111590 *  0.331422 *   3.00000    1.000000    
      6 Al    c    0.242506 *  0.111590 *  0.178327 *   3.00000    1.000000    
      7 Al    c    0.479266 *  0.611590 *  0.678327 *   3.00000    1.000000    
      8 Al    c    0.979266 *  0.111590 *  0.678327 *   3.00000    1.000000    
      9 Al    c    0.479266 *  0.611590 *  0.331422 *   3.00000    1.000000    
     10 Al    c    0.742506 *  0.611590 *  0.178327 *   3.00000    1.000000    
     11 Al    c    0.242506 *  0.111590 *  0.831422 *   3.00000    1.000000    
     12 Al    c    0.742506 *  0.611590 *  0.831422 *   3.00000    1.000000    
     13 O     c    0.110886 *  0.611590 *  0.254875 *  -2.00000    1.000000    
     14 O     c    0.879684 *  0.111590 *  0.146134 *  -2.00000    1.000000    
     15 O     c    0.879684 *  0.111590 *  0.863616 *  -2.00000    1.000000    
     16 O     c    0.160326 *  0.111590 *  0.004875 *  -2.00000    1.000000    
     17 O     c    0.342089 *  0.111590 *  0.363616 *  -2.00000    1.000000    
     18 O     c    0.061447 *  0.111590 *  0.504875 *  -2.00000    1.000000    
     19 O     c    0.110886 *  0.611590 *  0.754875 *  -2.00000    1.000000    
     20 O     c    0.342089 *  0.111590 *  0.646134 *  -2.00000    1.000000    
     21 O     c    0.610886 *  0.111590 *  0.254875 *  -2.00000    1.000000    
     22 O     c    0.379684 *  0.611590 *  0.146134 *  -2.00000    1.000000    
     23 O     c    0.660326 *  0.611590 *  0.004875 *  -2.00000    1.000000    
     24 O     c    0.379684 *  0.611590 *  0.863616 *  -2.00000    1.000000    
     25 O     c    0.842089 *  0.611590 *  0.363616 *  -2.00000    1.000000    
     26 O     c    0.561447 *  0.611590 *  0.504875 *  -2.00000    1.000000    
     27 O     c    0.610886 *  0.111590 *  0.754875 *  -2.00000    1.000000    
     28 O     c    0.842089 *  0.611590 *  0.646134 *  -2.00000    1.000000    
--------------------------------------------------------------------------------



********************************************************************************
*  General input information                                                   *
********************************************************************************

  Species output for all configurations : 

--------------------------------------------------------------------------------
  Species    Type    Atomic    Atomic    Charge       Radii (Angs)     Library
                     Number     Mass       (e)     Cova   Ionic  VDW   Symbol
--------------------------------------------------------------------------------
    Mg       Core       12      24.31   2.000000   1.100  0.000  1.640          
    Al       Core       13      26.98   3.000000   1.350  0.000  2.050          
    O        Core        8      16.00  -2.000000   0.730  0.000  1.360          
--------------------------------------------------------------------------------


  Lattice summation method               =    Ewald          (3-D)
                                         =    Parry          (2-D)
                                         =    Saunders et al (1-D)
  Accuracy factor for lattice sums       =   12.000


  Analytic derivatives to be used

  Time limit = Infinity

  Maximum range for interatomic potentials =    100000.000000 Angstroms

  General interatomic potentials :

--------------------------------------------------------------------------------
Atom  Types   Potential      Parameter       Value         Units   Cutoffs(Ang)
  1     2                                                            Min /  Max 
--------------------------------------------------------------------------------
O    c Mg   c Lennard       Lennard-Jones A  1.5000000    eV*Ang^m  0.000  6.000
                            Lennard-Jones B  0.0000000    eV*Ang^n  
                            Exponent m        12          None
                            Exponent n         6          None
--------------------------------------------------------------------------------
O    c Al   c Lennard       Lennard-Jones A  1.5000000    eV*Ang^m  0.000  6.000
                            Lennard-Jones B  0.0000000    eV*Ang^n  
                            Exponent m        12          None
                            Exponent n         6          None
--------------------------------------------------------------------------------
O    c O    c Lennard       Lennard-Jones A  1.5000000    eV*Ang^m  0.000  6.000
                            Lennard-Jones B  0.0000000    eV*Ang^n  
                            Exponent m        12          None
                            Exponent n         6          None
--------------------------------------------------------------------------------
Mg   c Mg   c Lennard       Lennard-Jones A  1.5000000    eV*Ang^m  0.000  6.000
                            Lennard-Jones B  0.0000000    eV*Ang^n  
                            Exponent m        12          None
                            Exponent n         6          None
--------------------------------------------------------------------------------
Mg   c Al   c Lennard       Lennard-Jones A  1.5000000    eV*Ang^m  0.000  6.000
                            Lennard-Jones B  0.0000000    eV*Ang^n  
                            Exponent m        12          None
                            Exponent n         6          None
--------------------------------------------------------------------------------
Al   c Al   c Lennard       Lennard-Jones A  1.5000000    eV*Ang^m  0.000  6.000
                            Lennard-Jones B  0.0000000    eV*Ang^n  
                            Exponent m        12          None
                            Exponent n         6          None
--------------------------------------------------------------------------------
O    c Mg   c Buckingham    Buckingham A     1428.5000    eV        0.000  7.000
                            Buckingham rho  0.29450000    Ang       
                            Buckingham C     0.0000000    eV*Ang^6  
--------------------------------------------------------------------------------
O    c Al   c Buckingham    Buckingham A     1114.9000    eV        0.000  7.000
                            Buckingham rho  0.31180000    Ang       
                            Buckingham C     0.0000000    eV*Ang^6  
--------------------------------------------------------------------------------
O    c O    c Buckingham    Buckingham A     2023.8000    eV        0.000  7.000
                            Buckingham rho  0.26740000    Ang       
                            Buckingham C     0.0000000    eV*Ang^6  
--------------------------------------------------------------------------------

********************************************************************************
*  Output for configuration   1                                                *
********************************************************************************


  Components of enthalpy : 

--------------------------------------------------------------------------------
  Interatomic potentials     =         219.25480850 eV    
  Monopole - monopole (real) =        -505.66459442 eV    
  Monopole - monopole (recip)=        -492.78496276 eV    
  Monopole - monopole (total)=        -998.44955718 eV    
  Pressure*volume            =         125.70524926 eV    
--------------------------------------------------------------------------------
  Total lattice enthalpy     =        -653.48949942 eV    
--------------------------------------------------------------------------------
  Total lattice enthalpy     =          -63051.7472 kJ/(mole unit cells)
--------------------------------------------------------------------------------


  Number of variables =       81

  Maximum number of calculations  =           850
  Maximum Hessian update interval =            10
  Maximum step size               =   1.000000000
  Maximum parameter tolerance     =   0.000010000
  Maximum function  tolerance     =   0.000010000
  Maximum gradient  tolerance     =   0.001000000
  Maximum gradient  component     =   0.010000000

  Conjugate gradient optimiser to be used

  Lower half triangular hessian to be used

  Minimiser to switch to RFO
  When gradient norm is less than     0.010000

  Start of bulk optimisation :

  Cycle:      0 Energy:      -653.489499  Gnorm:      0.005896  CPU:    0.027
  ** Hessian has required structure
  Cycle:      1 Energy:      -653.489526  Gnorm:      0.000002  CPU:    0.111
  ** Hessian has required structure


  **** Optimisation achieved ****


  Final enthalpy =    -653.48952565 eV      
  Final Gnorm    =       0.00000000

  Components of enthalpy : 

--------------------------------------------------------------------------------
  Interatomic potentials     =         219.23099782 eV    
  Monopole - monopole (real) =        -505.64141675 eV    
  Monopole - monopole (recip)=        -492.78435597 eV    
  Monopole - monopole (total)=        -998.42577273 eV    
  Pressure*volume            =         125.70524926 eV    
--------------------------------------------------------------------------------
  Total lattice enthalpy     =        -653.48952565 eV    
--------------------------------------------------------------------------------
  Total lattice enthalpy     =          -63051.7497 kJ/(mole unit cells)
--------------------------------------------------------------------------------

  Final fractional coordinates of atoms :

--------------------------------------------------------------------------------
   No.  Atomic        x           y          z          Radius
        Label       (Frac)      (Frac)     (Frac)       (Angs) 
--------------------------------------------------------------------------------
     1  Mg    c     0.995219    0.611590    0.004875    0.000000
     2  Mg    c     0.226593    0.611590    0.504875    0.000000
     3  Mg    c     0.495219    0.111590    0.004875    0.000000
     4  Mg    c     0.726593    0.111590    0.504875    0.000000
     5  Al    c     0.979296    0.111590    0.331400    0.000000
     6  Al    c     0.242517    0.111590    0.178350    0.000000
     7  Al    c     0.479296    0.611590    0.678350    0.000000
     8  Al    c     0.979296    0.111590    0.678350    0.000000
     9  Al    c     0.479296    0.611590    0.331400    0.000000
    10  Al    c     0.742517    0.611590    0.178350    0.000000
    11  Al    c     0.242517    0.111590    0.831400    0.000000
    12  Al    c     0.742517    0.611590    0.831400    0.000000
    13  O     c     0.110906    0.611590    0.254875    0.000000
    14  O     c     0.879708    0.111590    0.146127    0.000000
    15  O     c     0.879708    0.111590    0.863623    0.000000
    16  O     c     0.160295    0.111590    0.004875    0.000000
    17  O     c     0.342104    0.111590    0.363623    0.000000
    18  O     c     0.061518    0.111590    0.504875    0.000000
    19  O     c     0.110906    0.611590    0.754875    0.000000
    20  O     c     0.342104    0.111590    0.646127    0.000000
    21  O     c     0.610906    0.111590    0.254875    0.000000
    22  O     c     0.379708    0.611590    0.146127    0.000000
    23  O     c     0.660295    0.611590    0.004875    0.000000
    24  O     c     0.379708    0.611590    0.863623    0.000000
    25  O     c     0.842104    0.611590    0.363623    0.000000
    26  O     c     0.561518    0.611590    0.504875    0.000000
    27  O     c     0.610906    0.111590    0.754875    0.000000
    28  O     c     0.842104    0.611590    0.646127    0.000000
--------------------------------------------------------------------------------

  Final internal derivatives :

--------------------------------------------------------------------------------
   No.  Atomic          a             b             c           Radius
        Label          (eV)          (eV)          (eV)        (eV/Angs)
--------------------------------------------------------------------------------
      1 Mg    c       0.000000      0.000000      0.000000      0.000000
      2 Mg    c      -0.000000     -0.000000     -0.000000      0.000000
      3 Mg    c       0.000000     -0.000000      0.000000      0.000000
      4 Mg    c      -0.000000     -0.000000      0.000000      0.000000
      5 Al    c       0.000000      0.000000      0.000000      0.000000
      6 Al    c      -0.000000      0.000000     -0.000000      0.000000
      7 Al    c       0.000000      0.000000     -0.000000      0.000000
      8 Al    c       0.000000     -0.000000     -0.000000      0.000000
      9 Al    c       0.000000      0.000000      0.000000      0.000000
     10 Al    c      -0.000000     -0.000000     -0.000000      0.000000
     11 Al    c      -0.000000      0.000000      0.000000      0.000000
     12 Al    c      -0.000000     -0.000000      0.000000      0.000000
     13 O     c       0.000000      0.000000      0.000000      0.000000
     14 O     c       0.000000      0.000000      0.000000      0.000000
     15 O     c       0.000000     -0.000000     -0.000000      0.000000
     16 O     c       0.000000      0.000000      0.000000      0.000000
     17 O     c      -0.000000      0.000000     -0.000000      0.000000
     18 O     c      -0.000000     -0.000000      0.000000      0.000000
     19 O     c      -0.000000      0.000000      0.000000      0.000000
     20 O     c      -0.000000      0.000000      0.000000      0.000000
     21 O     c       0.000000     -0.000000     -0.000000      0.000000
     22 O     c       0.000000     -0.000000      0.000000      0.000000
     23 O     c       0.000000      0.000000      0.000000      0.000000
     24 O     c       0.000000     -0.000000     -0.000000      0.000000
     25 O     c      -0.000000     -0.000000     -0.000000      0.000000
     26 O     c      -0.000000     -0.000000      0.000000      0.000000
     27 O     c      -0.000000      0.000000     -0.000000      0.000000
     28 O     c      -0.000000      0.000000      0.000000      0.000000
--------------------------------------------------------------------------------
  Maximum abs         0.000000      0.000000      0.000000      0.000000
--------------------------------------------------------------------------------


  Time to end of optimisation =       0.1603 seconds


  Peak dynamic memory used =       2.01 MB 


  Timing analysis for GULP :

--------------------------------------------------------------------------------
  Task / Subroutine                                          Time (Seconds)
--------------------------------------------------------------------------------
  Calculation of reciprocal space energy and derivatives          0.0369
  Calculation of real space energy and derivatives                0.0849
  Calculation and manipulation of Hessian matrix                  0.0260
--------------------------------------------------------------------------------
  Total CPU time                                                  0.1603
--------------------------------------------------------------------------------


  Job Finished at 12:51.21 10th June       2024                               

