********************************************************************************
*                       GENERAL UTILITY LATTICE PROGRAM                        *
*                                 Julian Gale                                  *
*                       Curtin Institute for Computation                       *
*                    School of Molecular and Life Sciences                     *
*                    Curtin University, Western Australia                      *
********************************************************************************
* Version = 6.0.0 * Last modified =  12th July 2021                            *
********************************************************************************
*  optimise     - perform optimisation run                                     *
*  conv         - constant volume calculation                                  *
*  nosymmetry   - turn off symmetry after initial structure generation         *
*  conjugate    - use conjugate gradients minimiser                            *
********************************************************************************

  Job Started  at 12:51.19 10th June       2024                               

  Number of CPUs =     1


  Total number of configurations input =      1

********************************************************************************
*  Input for Configuration =   1                                               *
********************************************************************************

  Formula = Mg4Al8O16                                                   

  Number of irreducible atoms/shells =      28


  Total number atoms/shells =      28

  Dimensionality = 3               :  Bulk   



  Cartesian lattice vectors (Angstroms) :

       17.436680    0.000000    0.000000
        0.000000    4.572268    0.000000
        0.000000    0.761253    2.526223

  Cell parameters (Angstroms/Degrees):

  a =      17.4367    alpha =  73.2303
  b =       4.5723    beta  =  90.0000
  c =       2.6384    gamma =  90.0000

  Initial cell volume =         201.403568 Angs**3

  Temperature of configuration =   0.00     K 

  Pressure of configuration =       100.000 GPa 

  Fractional coordinates of asymmetric unit :

--------------------------------------------------------------------------------
   No.  Atomic       x           y          z         Charge      Occupancy
        Label      (Frac)      (Frac)     (Frac)        (e)         (Frac)  
--------------------------------------------------------------------------------
      1 Mg    c    0.376263    0.251328    0.001256     2.00000    1.000000    
      2 Mg    c    0.126263 *  0.713997 *  0.769921 *   2.00000    1.000000    
      3 Mg    c    0.876263 *  0.251328 *  0.001256 *   2.00000    1.000000    
      4 Mg    c    0.626263 *  0.713997 *  0.769921 *   2.00000    1.000000    
      5 Al    c    0.212989 *  0.219422 *  0.517209 *   3.00000    1.000000    
      6 Al    c    0.289537 *  0.745903 *  0.253969 *   3.00000    1.000000    
      7 Al    c    0.539537 *  0.219422 *  0.517209 *   3.00000    1.000000    
      8 Al    c    0.962989 *  0.745903 *  0.253968 *   3.00000    1.000000    
      9 Al    c    0.712989 *  0.219422 *  0.517209 *   3.00000    1.000000    
     10 Al    c    0.789537 *  0.745903 *  0.253969 *   3.00000    1.000000    
     11 Al    c    0.039537 *  0.219422 *  0.517209 *   3.00000    1.000000    
     12 Al    c    0.462989 *  0.745903 *  0.253968 *   3.00000    1.000000    
     13 O     c    0.126263 *  0.383784 *  0.435028 *  -2.00000    1.000000    
     14 O     c    0.376263 *  0.581541 *  0.336149 *  -2.00000    1.000000    
     15 O     c    0.196893 *  0.945067 *  0.154386 *  -2.00000    1.000000    
     16 O     c    0.446893 *  0.020258 *  0.616791 *  -2.00000    1.000000    
     17 O     c    0.055633 *  0.945067 *  0.154387 *  -2.00000    1.000000    
     18 O     c    0.251263 *  0.482663 *  0.885589 *  -2.00000    1.000000    
     19 O     c    0.305633 *  0.020258 *  0.616791 *  -2.00000    1.000000    
     20 O     c    0.001263 *  0.482663 *  0.885589 *  -2.00000    1.000000    
     21 O     c    0.626263 *  0.383784 *  0.435028 *  -2.00000    1.000000    
     22 O     c    0.876263 *  0.581541 *  0.336149 *  -2.00000    1.000000    
     23 O     c    0.696893 *  0.945067 *  0.154386 *  -2.00000    1.000000    
     24 O     c    0.946893 *  0.020258 *  0.616791 *  -2.00000    1.000000    
     25 O     c    0.555633 *  0.945067 *  0.154387 *  -2.00000    1.000000    
     26 O     c    0.751263 *  0.482663 *  0.885589 *  -2.00000    1.000000    
     27 O     c    0.805633 *  0.020258 *  0.616791 *  -2.00000    1.000000    
     28 O     c    0.501263 *  0.482663 *  0.885589 *  -2.00000    1.000000    
--------------------------------------------------------------------------------



********************************************************************************
*  General input information                                                   *
********************************************************************************

  Species output for all configurations : 

--------------------------------------------------------------------------------
  Species    Type    Atomic    Atomic    Charge       Radii (Angs)     Library
                     Number     Mass       (e)     Cova   Ionic  VDW   Symbol
--------------------------------------------------------------------------------
    Mg       Core       12      24.31   2.000000   1.100  0.000  1.640          
    Al       Core       13      26.98   3.000000   1.350  0.000  2.050          
    O        Core        8      16.00  -2.000000   0.730  0.000  1.360          
--------------------------------------------------------------------------------


  Lattice summation method               =    Ewald          (3-D)
                                         =    Parry          (2-D)
                                         =    Saunders et al (1-D)
  Accuracy factor for lattice sums       =   12.000


  Analytic derivatives to be used

  Time limit = Infinity

  Maximum range for interatomic potentials =    100000.000000 Angstroms

  General interatomic potentials :

--------------------------------------------------------------------------------
Atom  Types   Potential      Parameter       Value         Units   Cutoffs(Ang)
  1     2                                                            Min /  Max 
--------------------------------------------------------------------------------
O    c Mg   c Lennard       Lennard-Jones A  1.5000000    eV*Ang^m  0.000  6.000
                            Lennard-Jones B  0.0000000    eV*Ang^n  
                            Exponent m        12          None
                            Exponent n         6          None
--------------------------------------------------------------------------------
O    c Al   c Lennard       Lennard-Jones A  1.5000000    eV*Ang^m  0.000  6.000
                            Lennard-Jones B  0.0000000    eV*Ang^n  
                            Exponent m        12          None
                            Exponent n         6          None
--------------------------------------------------------------------------------
O    c O    c Lennard       Lennard-Jones A  1.5000000    eV*Ang^m  0.000  6.000
                            Lennard-Jones B  0.0000000    eV*Ang^n  
                            Exponent m        12          None
                            Exponent n         6          None
--------------------------------------------------------------------------------
Mg   c Mg   c Lennard       Lennard-Jones A  1.5000000    eV*Ang^m  0.000  6.000
                            Lennard-Jones B  0.0000000    eV*Ang^n  
                            Exponent m        12          None
                            Exponent n         6          None
--------------------------------------------------------------------------------
Mg   c Al   c Lennard       Lennard-Jones A  1.5000000    eV*Ang^m  0.000  6.000
                            Lennard-Jones B  0.0000000    eV*Ang^n  
                            Exponent m        12          None
                            Exponent n         6          None
--------------------------------------------------------------------------------
Al   c Al   c Lennard       Lennard-Jones A  1.5000000    eV*Ang^m  0.000  6.000
                            Lennard-Jones B  0.0000000    eV*Ang^n  
                            Exponent m        12          None
                            Exponent n         6          None
--------------------------------------------------------------------------------
O    c Mg   c Buckingham    Buckingham A     1428.5000    eV        0.000  7.000
                            Buckingham rho  0.29450000    Ang       
                            Buckingham C     0.0000000    eV*Ang^6  
--------------------------------------------------------------------------------
O    c Al   c Buckingham    Buckingham A     1114.9000    eV        0.000  7.000
                            Buckingham rho  0.31180000    Ang       
                            Buckingham C     0.0000000    eV*Ang^6  
--------------------------------------------------------------------------------
O    c O    c Buckingham    Buckingham A     2023.8000    eV        0.000  7.000
                            Buckingham rho  0.26740000    Ang       
                            Buckingham C     0.0000000    eV*Ang^6  
--------------------------------------------------------------------------------

********************************************************************************
*  Output for configuration   1                                                *
********************************************************************************


  Components of enthalpy : 

--------------------------------------------------------------------------------
  Interatomic potentials     =         219.25536188 eV    
  Monopole - monopole (real) =        -505.66512304 eV    
  Monopole - monopole (recip)=        -492.78498704 eV    
  Monopole - monopole (total)=        -998.45011009 eV    
  Pressure*volume            =         125.70524947 eV    
--------------------------------------------------------------------------------
  Total lattice enthalpy     =        -653.48949874 eV    
--------------------------------------------------------------------------------
  Total lattice enthalpy     =          -63051.7471 kJ/(mole unit cells)
--------------------------------------------------------------------------------


  Number of variables =       81

  Maximum number of calculations  =           850
  Maximum Hessian update interval =            10
  Maximum step size               =   1.000000000
  Maximum parameter tolerance     =   0.000010000
  Maximum function  tolerance     =   0.000010000
  Maximum gradient  tolerance     =   0.001000000
  Maximum gradient  component     =   0.010000000

  Conjugate gradient optimiser to be used

  Lower half triangular hessian to be used

  Minimiser to switch to RFO
  When gradient norm is less than     0.010000

  Start of bulk optimisation :

  Cycle:      0 Energy:      -653.489499  Gnorm:      0.009528  CPU:    0.033
  ** Hessian has required structure
  Cycle:      1 Energy:      -653.489526  Gnorm:      0.000004  CPU:    0.126
  ** Hessian has required structure


  **** Optimisation achieved ****


  Final enthalpy =    -653.48952565 eV      
  Final Gnorm    =       0.00000000

  Components of enthalpy : 

--------------------------------------------------------------------------------
  Interatomic potentials     =         219.23099771 eV    
  Monopole - monopole (real) =        -505.64141712 eV    
  Monopole - monopole (recip)=        -492.78435571 eV    
  Monopole - monopole (total)=        -998.42577283 eV    
  Pressure*volume            =         125.70524947 eV    
--------------------------------------------------------------------------------
  Total lattice enthalpy     =        -653.48952565 eV    
--------------------------------------------------------------------------------
  Total lattice enthalpy     =          -63051.7497 kJ/(mole unit cells)
--------------------------------------------------------------------------------

  Final fractional coordinates of atoms :

--------------------------------------------------------------------------------
   No.  Atomic        x           y          z          Radius
        Label       (Frac)      (Frac)     (Frac)       (Angs) 
--------------------------------------------------------------------------------
     1  Mg    c     0.376263    0.251328    0.001256    0.000000
     2  Mg    c     0.126263    0.714077    0.769882    0.000000
     3  Mg    c     0.876263    0.251328    0.001256    0.000000
     4  Mg    c     0.626263    0.714077    0.769882    0.000000
     5  Al    c     0.213000    0.219481    0.517179    0.000000
     6  Al    c     0.289526    0.745923    0.253958    0.000000
     7  Al    c     0.539526    0.219481    0.517179    0.000000
     8  Al    c     0.963000    0.745923    0.253958    0.000000
     9  Al    c     0.713000    0.219481    0.517179    0.000000
    10  Al    c     0.789526    0.745923    0.253958    0.000000
    11  Al    c     0.039526    0.219481    0.517179    0.000000
    12  Al    c     0.463000    0.745923    0.253958    0.000000
    13  O     c     0.126263    0.383925    0.434957    0.000000
    14  O     c     0.376263    0.581479    0.336180    0.000000
    15  O     c     0.196889    0.945098    0.154371    0.000000
    16  O     c     0.446889    0.020306    0.616767    0.000000
    17  O     c     0.055637    0.945098    0.154371    0.000000
    18  O     c     0.251263    0.482702    0.885569    0.000000
    19  O     c     0.305637    0.020306    0.616767    0.000000
    20  O     c     0.001263    0.482702    0.885569    0.000000
    21  O     c     0.626263    0.383925    0.434957    0.000000
    22  O     c     0.876263    0.581479    0.336180    0.000000
    23  O     c     0.696889    0.945098    0.154371    0.000000
    24  O     c     0.946889    0.020306    0.616767    0.000000
    25  O     c     0.555637    0.945098    0.154371    0.000000
    26  O     c     0.751263    0.482702    0.885569    0.000000
    27  O     c     0.805637    0.020306    0.616767    0.000000
    28  O     c     0.501263    0.482702    0.885569    0.000000
--------------------------------------------------------------------------------

  Final internal derivatives :

--------------------------------------------------------------------------------
   No.  Atomic          a             b             c           Radius
        Label          (eV)          (eV)          (eV)        (eV/Angs)
--------------------------------------------------------------------------------
      1 Mg    c       0.000000      0.000000      0.000000      0.000000
      2 Mg    c      -0.000000     -0.000000      0.000000      0.000000
      3 Mg    c      -0.000000      0.000000      0.000000      0.000000
      4 Mg    c      -0.000000     -0.000000     -0.000000      0.000000
      5 Al    c      -0.000000      0.000000      0.000000      0.000000
      6 Al    c       0.000000     -0.000000      0.000000      0.000000
      7 Al    c       0.000000      0.000000     -0.000000      0.000000
      8 Al    c      -0.000000     -0.000000     -0.000000      0.000000
      9 Al    c      -0.000000      0.000000     -0.000000      0.000000
     10 Al    c       0.000000     -0.000000      0.000000      0.000000
     11 Al    c       0.000000      0.000000      0.000000      0.000000
     12 Al    c      -0.000000     -0.000000     -0.000000      0.000000
     13 O     c      -0.000000     -0.000000     -0.000000      0.000000
     14 O     c       0.000000      0.000000     -0.000000      0.000000
     15 O     c       0.000000     -0.000000     -0.000000      0.000000
     16 O     c       0.000000      0.000000     -0.000000      0.000000
     17 O     c      -0.000000     -0.000000     -0.000000      0.000000
     18 O     c       0.000000     -0.000000     -0.000000      0.000000
     19 O     c      -0.000000      0.000000      0.000000      0.000000
     20 O     c       0.000000     -0.000000      0.000000      0.000000
     21 O     c       0.000000     -0.000000      0.000000      0.000000
     22 O     c      -0.000000      0.000000     -0.000000      0.000000
     23 O     c       0.000000     -0.000000      0.000000      0.000000
     24 O     c       0.000000      0.000000      0.000000      0.000000
     25 O     c      -0.000000     -0.000000      0.000000      0.000000
     26 O     c      -0.000000      0.000000     -0.000000      0.000000
     27 O     c      -0.000000      0.000000     -0.000000      0.000000
     28 O     c      -0.000000      0.000000      0.000000      0.000000
--------------------------------------------------------------------------------
  Maximum abs         0.000000      0.000000      0.000000      0.000000
--------------------------------------------------------------------------------


  Time to end of optimisation =       0.1913 seconds


  Peak dynamic memory used =       2.01 MB 


  Timing analysis for GULP :

--------------------------------------------------------------------------------
  Task / Subroutine                                          Time (Seconds)
--------------------------------------------------------------------------------
  Calculation of reciprocal space energy and derivatives          0.0338
  Calculation of real space energy and derivatives                0.1163
  Calculation and manipulation of Hessian matrix                  0.0272
--------------------------------------------------------------------------------
  Total CPU time                                                  0.1913
--------------------------------------------------------------------------------


  Job Finished at 12:51.19 10th June       2024                               

