********************************************************************************
*                       GENERAL UTILITY LATTICE PROGRAM                        *
*                                 Julian Gale                                  *
*                       Curtin Institute for Computation                       *
*                    School of Molecular and Life Sciences                     *
*                    Curtin University, Western Australia                      *
********************************************************************************
* Version = 6.0.0 * Last modified =  12th July 2021                            *
********************************************************************************
*  optimise     - perform optimisation run                                     *
*  conv         - constant volume calculation                                  *
*  nosymmetry   - turn off symmetry after initial structure generation         *
*  conjugate    - use conjugate gradients minimiser                            *
********************************************************************************

  Job Started  at 12:51.24 10th June       2024                               

  Number of CPUs =     1


  Total number of configurations input =      1

********************************************************************************
*  Input for Configuration =   1                                               *
********************************************************************************

  Formula = Mg4Al8O16                                                   

  Number of irreducible atoms/shells =      28


  Total number atoms/shells =      28

  Dimensionality = 3               :  Bulk   



  Cartesian lattice vectors (Angstroms) :

        2.688367    0.000000    0.000000
        0.000000    9.346156    0.000000
        0.000000    0.000000    8.002181

  Cell parameters (Angstroms/Degrees):

  a =       2.6884    alpha =  90.0000
  b =       9.3462    beta  =  90.0000
  c =       8.0022    gamma =  90.0000

  Initial cell volume =         201.061979 Angs**3

  Temperature of configuration =   0.00     K 

  Pressure of configuration =       100.000 GPa 

  Fractional coordinates of asymmetric unit :

--------------------------------------------------------------------------------
   No.  Atomic       x           y          z         Charge      Occupancy
        Label      (Frac)      (Frac)     (Frac)        (e)         (Frac)  
--------------------------------------------------------------------------------
      1 Mg    c    0.900326    0.241794    0.833200     2.00000    1.000000    
      2 Mg    c    0.900326 *  0.031403 *  0.333200 *   2.00000    1.000000    
      3 Mg    c    0.400326 *  0.531403 *  0.329727 *   2.00000    1.000000    
      4 Mg    c    0.400326 *  0.741794 *  0.829727 *   2.00000    1.000000    
      5 Al    c    0.400326 *  0.000065 *  0.659601 *   3.00000    1.000000    
      6 Al    c    0.400326 *  0.273132 *  0.159601 *   3.00000    1.000000    
      7 Al    c    0.900326 *  0.270782 *  0.504625 *   3.00000    1.000000    
      8 Al    c    0.900326 *  0.002415 *  0.004625 *   3.00000    1.000000    
      9 Al    c    0.400326 *  0.502415 *  0.658303 *   3.00000    1.000000    
     10 Al    c    0.900326 *  0.500065 *  0.003326 *   3.00000    1.000000    
     11 Al    c    0.900326 *  0.773132 *  0.503326 *   3.00000    1.000000    
     12 Al    c    0.400326 *  0.770782 *  0.158303 *   3.00000    1.000000    
     13 O     c    0.900326 *  0.102683 *  0.595282 *  -2.00000    1.000000    
     14 O     c    0.900326 *  0.405402 *  0.206214 *  -2.00000    1.000000    
     15 O     c    0.400326 *  0.313709 *  0.662343 *  -2.00000    1.000000    
     16 O     c    0.400326 *  0.215305 *  0.368035 *  -2.00000    1.000000    
     17 O     c    0.400326 *  0.057892 *  0.868035 *  -2.00000    1.000000    
     18 O     c    0.900326 *  0.170514 *  0.095282 *  -2.00000    1.000000    
     19 O     c    0.900326 *  0.459489 *  0.500584 *  -2.00000    1.000000    
     20 O     c    0.400326 *  0.670514 *  0.567645 *  -2.00000    1.000000    
     21 O     c    0.400326 *  0.602683 *  0.067645 *  -2.00000    1.000000    
     22 O     c    0.900326 *  0.557892 *  0.794892 *  -2.00000    1.000000    
     23 O     c    0.400326 *  0.367795 *  0.956713 *  -2.00000    1.000000    
     24 O     c    0.900326 *  0.715305 *  0.294892 *  -2.00000    1.000000    
     25 O     c    0.900326 *  0.867795 *  0.706214 *  -2.00000    1.000000    
     26 O     c    0.400326 *  0.959488 *  0.162343 *  -2.00000    1.000000    
     27 O     c    0.400326 *  0.905402 *  0.456713 *  -2.00000    1.000000    
     28 O     c    0.900326 *  0.813709 *  0.000584 *  -2.00000    1.000000    
--------------------------------------------------------------------------------



********************************************************************************
*  General input information                                                   *
********************************************************************************

  Species output for all configurations : 

--------------------------------------------------------------------------------
  Species    Type    Atomic    Atomic    Charge       Radii (Angs)     Library
                     Number     Mass       (e)     Cova   Ionic  VDW   Symbol
--------------------------------------------------------------------------------
    Mg       Core       12      24.31   2.000000   1.100  0.000  1.640          
    Al       Core       13      26.98   3.000000   1.350  0.000  2.050          
    O        Core        8      16.00  -2.000000   0.730  0.000  1.360          
--------------------------------------------------------------------------------


  Lattice summation method               =    Ewald          (3-D)
                                         =    Parry          (2-D)
                                         =    Saunders et al (1-D)
  Accuracy factor for lattice sums       =   12.000


  Analytic derivatives to be used

  Time limit = Infinity

  Maximum range for interatomic potentials =    100000.000000 Angstroms

  General interatomic potentials :

--------------------------------------------------------------------------------
Atom  Types   Potential      Parameter       Value         Units   Cutoffs(Ang)
  1     2                                                            Min /  Max 
--------------------------------------------------------------------------------
O    c Mg   c Lennard       Lennard-Jones A  1.5000000    eV*Ang^m  0.000  6.000
                            Lennard-Jones B  0.0000000    eV*Ang^n  
                            Exponent m        12          None
                            Exponent n         6          None
--------------------------------------------------------------------------------
O    c Al   c Lennard       Lennard-Jones A  1.5000000    eV*Ang^m  0.000  6.000
                            Lennard-Jones B  0.0000000    eV*Ang^n  
                            Exponent m        12          None
                            Exponent n         6          None
--------------------------------------------------------------------------------
O    c O    c Lennard       Lennard-Jones A  1.5000000    eV*Ang^m  0.000  6.000
                            Lennard-Jones B  0.0000000    eV*Ang^n  
                            Exponent m        12          None
                            Exponent n         6          None
--------------------------------------------------------------------------------
Mg   c Mg   c Lennard       Lennard-Jones A  1.5000000    eV*Ang^m  0.000  6.000
                            Lennard-Jones B  0.0000000    eV*Ang^n  
                            Exponent m        12          None
                            Exponent n         6          None
--------------------------------------------------------------------------------
Mg   c Al   c Lennard       Lennard-Jones A  1.5000000    eV*Ang^m  0.000  6.000
                            Lennard-Jones B  0.0000000    eV*Ang^n  
                            Exponent m        12          None
                            Exponent n         6          None
--------------------------------------------------------------------------------
Al   c Al   c Lennard       Lennard-Jones A  1.5000000    eV*Ang^m  0.000  6.000
                            Lennard-Jones B  0.0000000    eV*Ang^n  
                            Exponent m        12          None
                            Exponent n         6          None
--------------------------------------------------------------------------------
O    c Mg   c Buckingham    Buckingham A     1428.5000    eV        0.000  7.000
                            Buckingham rho  0.29450000    Ang       
                            Buckingham C     0.0000000    eV*Ang^6  
--------------------------------------------------------------------------------
O    c Al   c Buckingham    Buckingham A     1114.9000    eV        0.000  7.000
                            Buckingham rho  0.31180000    Ang       
                            Buckingham C     0.0000000    eV*Ang^6  
--------------------------------------------------------------------------------
O    c O    c Buckingham    Buckingham A     2023.8000    eV        0.000  7.000
                            Buckingham rho  0.26740000    Ang       
                            Buckingham C     0.0000000    eV*Ang^6  
--------------------------------------------------------------------------------

********************************************************************************
*  Output for configuration   1                                                *
********************************************************************************


  Components of enthalpy : 

--------------------------------------------------------------------------------
  Interatomic potentials     =         218.79111921 eV    
  Monopole - monopole (real) =        -506.12343190 eV    
  Monopole - monopole (recip)=        -493.14793934 eV    
  Monopole - monopole (total)=        -999.27137125 eV    
  Pressure*volume            =         125.49204760 eV    
--------------------------------------------------------------------------------
  Total lattice enthalpy     =        -654.98820444 eV    
--------------------------------------------------------------------------------
  Total lattice enthalpy     =          -63196.3493 kJ/(mole unit cells)
--------------------------------------------------------------------------------


  Number of variables =       81

  Maximum number of calculations  =           850
  Maximum Hessian update interval =            10
  Maximum step size               =   1.000000000
  Maximum parameter tolerance     =   0.000010000
  Maximum function  tolerance     =   0.000010000
  Maximum gradient  tolerance     =   0.001000000
  Maximum gradient  component     =   0.010000000

  Conjugate gradient optimiser to be used

  Lower half triangular hessian to be used

  Minimiser to switch to RFO
  When gradient norm is less than     0.010000

  Start of bulk optimisation :

  Cycle:      0 Energy:      -654.988204  Gnorm:      0.004059  CPU:    0.031
  ** Hessian has required structure
  Cycle:      1 Energy:      -654.988219  Gnorm:      0.000001  CPU:    0.124
  ** Hessian has required structure


  **** Optimisation achieved ****


  Final enthalpy =    -654.98821912 eV      
  Final Gnorm    =       0.00000000

  Components of enthalpy : 

--------------------------------------------------------------------------------
  Interatomic potentials     =         218.76766075 eV    
  Monopole - monopole (real) =        -506.10015714 eV    
  Monopole - monopole (recip)=        -493.14777033 eV    
  Monopole - monopole (total)=        -999.24792747 eV    
  Pressure*volume            =         125.49204760 eV    
--------------------------------------------------------------------------------
  Total lattice enthalpy     =        -654.98821912 eV    
--------------------------------------------------------------------------------
  Total lattice enthalpy     =          -63196.3507 kJ/(mole unit cells)
--------------------------------------------------------------------------------

  Final fractional coordinates of atoms :

--------------------------------------------------------------------------------
   No.  Atomic        x           y          z          Radius
        Label       (Frac)      (Frac)     (Frac)       (Angs) 
--------------------------------------------------------------------------------
     1  Mg    c     0.900326    0.241794    0.833200    0.000000
     2  Mg    c     0.900326    0.031471    0.333200    0.000000
     3  Mg    c     0.400326    0.531471    0.329747    0.000000
     4  Mg    c     0.400326    0.741794    0.829747    0.000000
     5  Al    c     0.400326    0.000079    0.659606    0.000000
     6  Al    c     0.400326    0.273186    0.159606    0.000000
     7  Al    c     0.900326    0.270823    0.504620    0.000000
     8  Al    c     0.900326    0.002442    0.004620    0.000000
     9  Al    c     0.400326    0.502442    0.658327    0.000000
    10  Al    c     0.900326    0.500079    0.003341    0.000000
    11  Al    c     0.900326    0.773186    0.503341    0.000000
    12  Al    c     0.400326    0.770823    0.158327    0.000000
    13  O     c     0.900326    0.102702    0.595262    0.000000
    14  O     c     0.900326    0.405427    0.206254    0.000000
    15  O     c     0.400326    0.313719    0.662345    0.000000
    16  O     c     0.400326    0.215314    0.368036    0.000000
    17  O     c     0.400326    0.057951    0.868036    0.000000
    18  O     c     0.900326    0.170563    0.095262    0.000000
    19  O     c     0.900326    0.459546    0.500602    0.000000
    20  O     c     0.400326    0.670563    0.567685    0.000000
    21  O     c     0.400326    0.602702    0.067685    0.000000
    22  O     c     0.900326    0.557951    0.794912    0.000000
    23  O     c     0.400326    0.367838    0.956694    0.000000
    24  O     c     0.900326    0.715314    0.294912    0.000000
    25  O     c     0.900326    0.867838    0.706254    0.000000
    26  O     c     0.400326    0.959546    0.162345    0.000000
    27  O     c     0.400326    0.905427    0.456694    0.000000
    28  O     c     0.900326    0.813719    0.000602    0.000000
--------------------------------------------------------------------------------

  Final internal derivatives :

--------------------------------------------------------------------------------
   No.  Atomic          a             b             c           Radius
        Label          (eV)          (eV)          (eV)        (eV/Angs)
--------------------------------------------------------------------------------
      1 Mg    c       0.000000      0.000000      0.000000      0.000000
      2 Mg    c      -0.000000     -0.000000     -0.000000      0.000000
      3 Mg    c       0.000000     -0.000000      0.000000      0.000000
      4 Mg    c      -0.000000      0.000000      0.000000      0.000000
      5 Al    c      -0.000000     -0.000000     -0.000000      0.000000
      6 Al    c      -0.000000      0.000000     -0.000000      0.000000
      7 Al    c      -0.000000      0.000000      0.000000      0.000000
      8 Al    c       0.000000     -0.000000      0.000000      0.000000
      9 Al    c       0.000000     -0.000000     -0.000000      0.000000
     10 Al    c      -0.000000     -0.000000      0.000000      0.000000
     11 Al    c      -0.000000      0.000000      0.000000      0.000000
     12 Al    c       0.000000      0.000000     -0.000000      0.000000
     13 O     c       0.000000      0.000000      0.000000      0.000000
     14 O     c       0.000000     -0.000000     -0.000000      0.000000
     15 O     c       0.000000     -0.000000      0.000000      0.000000
     16 O     c       0.000000      0.000000      0.000000      0.000000
     17 O     c      -0.000000     -0.000000      0.000000      0.000000
     18 O     c      -0.000000     -0.000000      0.000000      0.000000
     19 O     c      -0.000000      0.000000      0.000000      0.000000
     20 O     c       0.000000     -0.000000     -0.000000      0.000000
     21 O     c       0.000000      0.000000     -0.000000      0.000000
     22 O     c      -0.000000     -0.000000     -0.000000      0.000000
     23 O     c       0.000000      0.000000      0.000000      0.000000
     24 O     c      -0.000000      0.000000     -0.000000      0.000000
     25 O     c      -0.000000      0.000000     -0.000000      0.000000
     26 O     c       0.000000      0.000000     -0.000000      0.000000
     27 O     c       0.000000     -0.000000      0.000000      0.000000
     28 O     c      -0.000000     -0.000000      0.000000      0.000000
--------------------------------------------------------------------------------
  Maximum abs         0.000000      0.000000      0.000000      0.000000
--------------------------------------------------------------------------------


  Time to end of optimisation =       0.1813 seconds


  Peak dynamic memory used =       2.01 MB 


  Timing analysis for GULP :

--------------------------------------------------------------------------------
  Task / Subroutine                                          Time (Seconds)
--------------------------------------------------------------------------------
  Calculation of reciprocal space energy and derivatives          0.0431
  Calculation of real space energy and derivatives                0.0906
  Calculation and manipulation of Hessian matrix                  0.0337
--------------------------------------------------------------------------------
  Total CPU time                                                  0.1813
--------------------------------------------------------------------------------


  Job Finished at 12:51.24 10th June       2024                               

