********************************************************************************
*                       GENERAL UTILITY LATTICE PROGRAM                        *
*                                 Julian Gale                                  *
*                       Curtin Institute for Computation                       *
*                    School of Molecular and Life Sciences                     *
*                    Curtin University, Western Australia                      *
********************************************************************************
* Version = 6.0.0 * Last modified =  12th July 2021                            *
********************************************************************************
*  optimise     - perform optimisation run                                     *
*  conp         - constant pressure calculation                                *
*  conjugate    - use conjugate gradients minimiser                            *
********************************************************************************

  Job Started  at 10:54.15 29th May        2024                               

  Number of CPUs =     1


  Total number of configurations input =      1

********************************************************************************
*  Input for Configuration =   1                                               *
********************************************************************************

  Formula = Ti4O8                                                       

  Number of irreducible atoms/shells =      12


  Total number atoms/shells =      12

  Dimensionality = 3               :  Bulk   



  Cartesian lattice vectors (Angstroms) :

        4.935659    0.005429    0.000000
       -0.004975    4.522186    0.000000
        0.000000   -0.000000    5.379247

  Cell parameters (Angstroms/Degrees):

  a =       4.9357    alpha =  90.0000
  b =       4.5222    beta  =  90.0000
  c =       5.3792    gamma =  90.0000

  Initial cell volume =         120.064766 Angs**3

  Temperature of configuration =   0.00     K 

  Pressure of configuration =         0.000 GPa 

  Fractional coordinates of asymmetric unit :

--------------------------------------------------------------------------------
   No.  Atomic       x           y          z         Charge      Occupancy
        Label      (Frac)      (Frac)     (Frac)        (e)         (Frac)  
--------------------------------------------------------------------------------
      1 Ti    c    0.000000    0.500000    0.959232     2.19600    1.000000    
      2 Ti    c    0.500000 *  0.000000 *  0.784279 *   2.19600    1.000000    
      3 Ti    c    0.000000 *  0.000000 *  0.459232 *   2.19600    1.000000    
      4 Ti    c    0.500000 *  0.500000 *  0.284279 *   2.19600    1.000000    
      5 O     c    0.332547 *  0.774031 *  0.507857 *  -1.09800    1.000000    
      6 O     c    0.667453 *  0.225969 *  0.507857 *  -1.09800    1.000000    
      7 O     c    0.167452 *  0.225969 *  0.735655 *  -1.09800    1.000000    
      8 O     c    0.832548 *  0.774031 *  0.735655 *  -1.09800    1.000000    
      9 O     c    0.667452 *  0.274031 *  0.007857 *  -1.09800    1.000000    
     10 O     c    0.332548 *  0.725969 *  0.007857 *  -1.09800    1.000000    
     11 O     c    0.832548 *  0.725968 *  0.235654 *  -1.09800    1.000000    
     12 O     c    0.167452 *  0.274032 *  0.235654 *  -1.09800    1.000000    
--------------------------------------------------------------------------------



********************************************************************************
*  General input information                                                   *
********************************************************************************

  Species output for all configurations : 

--------------------------------------------------------------------------------
  Species    Type    Atomic    Atomic    Charge       Radii (Angs)     Library
                     Number     Mass       (e)     Cova   Ionic  VDW   Symbol
--------------------------------------------------------------------------------
    Ti       Core       22      47.88   2.196000   1.470  0.000  2.190          
    O        Core        8      16.00  -1.098000   0.730  0.000  1.360          
--------------------------------------------------------------------------------


  Lattice summation method               =    Ewald          (3-D)
                                         =    Parry          (2-D)
                                         =    Saunders et al (1-D)
  Accuracy factor for lattice sums       =   12.000


  Analytic derivatives to be used

  Time limit = Infinity

  Maximum range for interatomic potentials =    100000.000000 Angstroms

  General interatomic potentials :

--------------------------------------------------------------------------------
Atom  Types   Potential      Parameter       Value         Units   Cutoffs(Ang)
  1     2                                                            Min /  Max 
--------------------------------------------------------------------------------
Ti   c Ti   c Buckingham    Buckingham A     31120.100    eV        0.000 15.000
                            Buckingham rho  0.15400000    Ang       
                            Buckingham C     5.2500000    eV*Ang^6  
--------------------------------------------------------------------------------
O    c O    c Buckingham    Buckingham A     11782.700    eV        0.000 15.000
                            Buckingham rho  0.23400000    Ang       
                            Buckingham C     30.220000    eV*Ang^6  
--------------------------------------------------------------------------------
O    c Ti   c Buckingham    Buckingham A     16957.500    eV        0.000 15.000
                            Buckingham rho  0.19400000    Ang       
                            Buckingham C     12.590000    eV*Ang^6  
--------------------------------------------------------------------------------
Ti   c Ti   c Lennard       Lennard-Jones A  1.0000000    eV*Ang^m  0.000 15.000
                            Lennard-Jones B  0.0000000    eV*Ang^n  
                            Exponent m        12          None
                            Exponent n         6          None
--------------------------------------------------------------------------------
O    c O    c Lennard       Lennard-Jones A  1.0000000    eV*Ang^m  0.000 15.000
                            Lennard-Jones B  0.0000000    eV*Ang^n  
                            Exponent m        12          None
                            Exponent n         6          None
--------------------------------------------------------------------------------
O    c Ti   c Lennard       Lennard-Jones A  1.0000000    eV*Ang^m  0.000 15.000
                            Lennard-Jones B  0.0000000    eV*Ang^n  
                            Exponent m        12          None
                            Exponent n         6          None
--------------------------------------------------------------------------------

********************************************************************************
*  Output for configuration   1                                                *
********************************************************************************


  Components of energy : 

--------------------------------------------------------------------------------
  Interatomic potentials     =          12.28993444 eV    
  Monopole - monopole (real) =         -67.80766330 eV    
  Monopole - monopole (recip)=        -103.54318095 eV    
  Monopole - monopole (total)=        -171.35084425 eV    
--------------------------------------------------------------------------------
  Total lattice energy       =        -159.06090981 eV    
--------------------------------------------------------------------------------
  Total lattice energy       =          -15346.9463 kJ/(mole unit cells)
--------------------------------------------------------------------------------


  Number of variables =       39

  Maximum number of calculations  =          1000
  Maximum Hessian update interval =            10
  Maximum step size               =   1.000000000
  Maximum parameter tolerance     =   0.000010000
  Maximum function  tolerance     =   0.000010000
  Maximum gradient  tolerance     =   0.001000000
  Maximum gradient  component     =   0.010000000

  Symmetry not applied to optimisation

  Cell parameters to be optimised using strains

  Conjugate gradient optimiser to be used

  Lower half triangular hessian to be used

  Minimiser to switch to BFGS with exact hessian
  When gradient norm is less than     0.500000

  Start of bulk optimisation :

  Cycle:      0 Energy:      -159.060910  Gnorm:      0.000036  CPU:    0.022


  **** Optimisation achieved ****


  Final energy =    -159.06090981 eV      
  Final Gnorm  =       0.00003637

  Components of energy : 

--------------------------------------------------------------------------------
  Interatomic potentials     =          12.28993444 eV    
  Monopole - monopole (real) =         -67.80766330 eV    
  Monopole - monopole (recip)=        -103.54318095 eV    
  Monopole - monopole (total)=        -171.35084425 eV    
--------------------------------------------------------------------------------
  Total lattice energy       =        -159.06090981 eV    
--------------------------------------------------------------------------------
  Total lattice energy       =          -15346.9463 kJ/(mole unit cells)
--------------------------------------------------------------------------------

  Final fractional coordinates of atoms :

--------------------------------------------------------------------------------
   No.  Atomic        x           y          z          Radius
        Label       (Frac)      (Frac)     (Frac)       (Angs) 
--------------------------------------------------------------------------------
     1  Ti    c     0.000000    0.500000    0.959232    0.000000
     2  Ti    c     0.500000    0.000000    0.784279    0.000000
     3  Ti    c     0.000000    0.000000    0.459232    0.000000
     4  Ti    c     0.500000    0.500000    0.284279    0.000000
     5  O     c     0.332547    0.774031    0.507857    0.000000
     6  O     c     0.667453    0.225969    0.507857    0.000000
     7  O     c     0.167452    0.225969    0.735655    0.000000
     8  O     c     0.832548    0.774031    0.735655    0.000000
     9  O     c     0.667452    0.274031    0.007857    0.000000
    10  O     c     0.332548    0.725969    0.007857    0.000000
    11  O     c     0.832548    0.725968    0.235654    0.000000
    12  O     c     0.167452    0.274032    0.235654    0.000000
--------------------------------------------------------------------------------

  Final Cartesian lattice vectors (Angstroms) :

        4.935659    0.005429    0.000000
       -0.004975    4.522186    0.000000
        0.000000    0.000000    5.379247


  Final cell parameters and derivatives :

--------------------------------------------------------------------------------
       a            4.935662 Angstrom     dE/de1(xx)     0.000013 eV/strain
       b            4.522189 Angstrom     dE/de2(yy)     0.000033 eV/strain
       c            5.379247 Angstrom     dE/de3(zz)     0.000102 eV/strain
       alpha       90.000000 Degrees      dE/de4(yz)    -0.000000 eV/strain
       beta        90.000000 Degrees      dE/de5(xz)     0.000000 eV/strain
       gamma       90.000010 Degrees      dE/de6(xy)     0.000069 eV/strain
--------------------------------------------------------------------------------

  Primitive cell volume =           120.064766 Angs**3

  Density of cell =      4.419147 g/cm**3

  Non-primitive cell volume =           120.064766 Angs**3


  Final internal derivatives :

--------------------------------------------------------------------------------
   No.  Atomic          a             b             c           Radius
        Label          (eV)          (eV)          (eV)        (eV/Angs)
--------------------------------------------------------------------------------
      1 Ti    c       0.000000      0.000000      0.000000      0.000000
      2 Ti    c       0.000000     -0.000000     -0.000259      0.000000
      3 Ti    c       0.000000     -0.000000      0.000190      0.000000
      4 Ti    c       0.000000      0.000000     -0.000143      0.000000
      5 O     c      -0.000322     -0.000195      0.000191      0.000000
      6 O     c       0.000322      0.000195      0.000191      0.000000
      7 O     c      -0.000258      0.000326      0.000325      0.000000
      8 O     c       0.000258     -0.000326      0.000325      0.000000
      9 O     c      -0.000014     -0.000025      0.000193      0.000000
     10 O     c       0.000014      0.000025      0.000193      0.000000
     11 O     c       0.000114     -0.000303     -0.000579      0.000000
     12 O     c      -0.000114      0.000303     -0.000579      0.000000
--------------------------------------------------------------------------------
  Maximum abs         0.000322      0.000326      0.000579      0.000000
--------------------------------------------------------------------------------


  Time to end of optimisation =       0.0219 seconds


  Peak dynamic memory used =       1.82 MB 


  Timing analysis for GULP :

--------------------------------------------------------------------------------
  Task / Subroutine                                          Time (Seconds)
--------------------------------------------------------------------------------
  Calculation of reciprocal space energy and derivatives          0.0006
  Calculation of real space energy and derivatives                0.0118
--------------------------------------------------------------------------------
  Total CPU time                                                  0.0219
--------------------------------------------------------------------------------


  Job Finished at 10:54.15 29th May        2024                               

