********************************************************************************
*                       GENERAL UTILITY LATTICE PROGRAM                        *
*                                 Julian Gale                                  *
*                       Curtin Institute for Computation                       *
*                    School of Molecular and Life Sciences                     *
*                    Curtin University, Western Australia                      *
********************************************************************************
* Version = 6.0.0 * Last modified =  12th July 2021                            *
********************************************************************************
*  optimise     - perform optimisation run                                     *
*  conp         - constant pressure calculation                                *
*  conjugate    - use conjugate gradients minimiser                            *
********************************************************************************

  Job Started  at 10:54.15 29th May        2024                               

  Number of CPUs =     1


  Total number of configurations input =      1

********************************************************************************
*  Input for Configuration =   1                                               *
********************************************************************************

  Formula = Ti4O8                                                       

  Number of irreducible atoms/shells =      12


  Total number atoms/shells =      12

  Dimensionality = 3               :  Bulk   



  Cartesian lattice vectors (Angstroms) :

        3.343959    0.029844   -0.456448
       -0.086349    5.784234   -0.253590
       -2.580681    2.526127    6.216234

  Cell parameters (Angstroms/Degrees):

  a =       3.3751    alpha =  71.4282
  b =       5.7904    beta  = 118.0013
  c =       7.1891    gamma =  90.0011

  Initial cell volume =         115.699636 Angs**3

  Temperature of configuration =   0.00     K 

  Pressure of configuration =         0.000 GPa 

  Fractional coordinates of asymmetric unit :

--------------------------------------------------------------------------------
   No.  Atomic       x           y          z         Charge      Occupancy
        Label      (Frac)      (Frac)     (Frac)        (e)         (Frac)  
--------------------------------------------------------------------------------
      1 Ti    c    0.500000    0.500000    0.839094     2.19600    1.000000    
      2 Ti    c    0.535501 *  0.473982 *  0.374582 *   2.19600    1.000000    
      3 Ti    c    0.000000 *  0.000000 *  0.339094 *   2.19600    1.000000    
      4 Ti    c    0.035501 *  0.973982 *  0.874582 *   2.19600    1.000000    
      5 O     c    0.173947 *  0.649873 *  0.513040 *  -1.09800    1.000000    
      6 O     c    0.933187 *  0.394231 *  0.272273 *  -1.09800    1.000000    
      7 O     c    0.861550 *  0.324108 *  0.700639 *  -1.09800    1.000000    
      8 O     c    0.102187 *  0.579889 *  0.941275 *  -1.09800    1.000000    
      9 O     c    0.433187 *  0.894231 *  0.772273 *  -1.09800    1.000000    
     10 O     c    0.361550 *  0.824108 *  0.200639 *  -1.09800    1.000000    
     11 O     c    0.673947 *  0.149873 *  0.013040 *  -1.09800    1.000000    
     12 O     c    0.602187 *  0.079889 *  0.441275 *  -1.09800    1.000000    
--------------------------------------------------------------------------------



********************************************************************************
*  General input information                                                   *
********************************************************************************

  Species output for all configurations : 

--------------------------------------------------------------------------------
  Species    Type    Atomic    Atomic    Charge       Radii (Angs)     Library
                     Number     Mass       (e)     Cova   Ionic  VDW   Symbol
--------------------------------------------------------------------------------
    Ti       Core       22      47.88   2.196000   1.470  0.000  2.190          
    O        Core        8      16.00  -1.098000   0.730  0.000  1.360          
--------------------------------------------------------------------------------


  Lattice summation method               =    Ewald          (3-D)
                                         =    Parry          (2-D)
                                         =    Saunders et al (1-D)
  Accuracy factor for lattice sums       =   12.000


  Analytic derivatives to be used

  Time limit = Infinity

  Maximum range for interatomic potentials =    100000.000000 Angstroms

  General interatomic potentials :

--------------------------------------------------------------------------------
Atom  Types   Potential      Parameter       Value         Units   Cutoffs(Ang)
  1     2                                                            Min /  Max 
--------------------------------------------------------------------------------
Ti   c Ti   c Buckingham    Buckingham A     31120.100    eV        0.000 15.000
                            Buckingham rho  0.15400000    Ang       
                            Buckingham C     5.2500000    eV*Ang^6  
--------------------------------------------------------------------------------
O    c O    c Buckingham    Buckingham A     11782.700    eV        0.000 15.000
                            Buckingham rho  0.23400000    Ang       
                            Buckingham C     30.220000    eV*Ang^6  
--------------------------------------------------------------------------------
O    c Ti   c Buckingham    Buckingham A     16957.500    eV        0.000 15.000
                            Buckingham rho  0.19400000    Ang       
                            Buckingham C     12.590000    eV*Ang^6  
--------------------------------------------------------------------------------
Ti   c Ti   c Lennard       Lennard-Jones A  1.0000000    eV*Ang^m  0.000 15.000
                            Lennard-Jones B  0.0000000    eV*Ang^n  
                            Exponent m        12          None
                            Exponent n         6          None
--------------------------------------------------------------------------------
O    c O    c Lennard       Lennard-Jones A  1.0000000    eV*Ang^m  0.000 15.000
                            Lennard-Jones B  0.0000000    eV*Ang^n  
                            Exponent m        12          None
                            Exponent n         6          None
--------------------------------------------------------------------------------
O    c Ti   c Lennard       Lennard-Jones A  1.0000000    eV*Ang^m  0.000 15.000
                            Lennard-Jones B  0.0000000    eV*Ang^n  
                            Exponent m        12          None
                            Exponent n         6          None
--------------------------------------------------------------------------------

********************************************************************************
*  Output for configuration   1                                                *
********************************************************************************


  Components of energy : 

--------------------------------------------------------------------------------
  Interatomic potentials     =          11.91177634 eV    
  Monopole - monopole (real) =         -64.22319963 eV    
  Monopole - monopole (recip)=        -104.91040818 eV    
  Monopole - monopole (total)=        -169.13360780 eV    
--------------------------------------------------------------------------------
  Total lattice energy       =        -157.22183147 eV    
--------------------------------------------------------------------------------
  Total lattice energy       =          -15169.5034 kJ/(mole unit cells)
--------------------------------------------------------------------------------


  Number of variables =       39

  Maximum number of calculations  =          1000
  Maximum Hessian update interval =            10
  Maximum step size               =   1.000000000
  Maximum parameter tolerance     =   0.000010000
  Maximum function  tolerance     =   0.000010000
  Maximum gradient  tolerance     =   0.001000000
  Maximum gradient  component     =   0.010000000

  Symmetry not applied to optimisation

  Cell parameters to be optimised using strains

  Conjugate gradient optimiser to be used

  Lower half triangular hessian to be used

  Minimiser to switch to BFGS with exact hessian
  When gradient norm is less than     0.500000

  Start of bulk optimisation :

  Cycle:      0 Energy:      -157.221831  Gnorm:      0.000104  CPU:    0.030


  **** Optimisation achieved ****


  Final energy =    -157.22183147 eV      
  Final Gnorm  =       0.00010374

  Components of energy : 

--------------------------------------------------------------------------------
  Interatomic potentials     =          11.91177634 eV    
  Monopole - monopole (real) =         -64.22319963 eV    
  Monopole - monopole (recip)=        -104.91040818 eV    
  Monopole - monopole (total)=        -169.13360780 eV    
--------------------------------------------------------------------------------
  Total lattice energy       =        -157.22183147 eV    
--------------------------------------------------------------------------------
  Total lattice energy       =          -15169.5034 kJ/(mole unit cells)
--------------------------------------------------------------------------------

  Final fractional coordinates of atoms :

--------------------------------------------------------------------------------
   No.  Atomic        x           y          z          Radius
        Label       (Frac)      (Frac)     (Frac)       (Angs) 
--------------------------------------------------------------------------------
     1  Ti    c     0.500000    0.500000    0.839094    0.000000
     2  Ti    c     0.535501    0.473982    0.374582    0.000000
     3  Ti    c     0.000000    0.000000    0.339094    0.000000
     4  Ti    c     0.035501    0.973982    0.874582    0.000000
     5  O     c     0.173947    0.649873    0.513040    0.000000
     6  O     c     0.933187    0.394231    0.272273    0.000000
     7  O     c     0.861550    0.324108    0.700639    0.000000
     8  O     c     0.102187    0.579889    0.941275    0.000000
     9  O     c     0.433187    0.894231    0.772273    0.000000
    10  O     c     0.361550    0.824108    0.200639    0.000000
    11  O     c     0.673947    0.149873    0.013040    0.000000
    12  O     c     0.602187    0.079889    0.441275    0.000000
--------------------------------------------------------------------------------

  Final Cartesian lattice vectors (Angstroms) :

        3.343959    0.029844   -0.456448
       -0.086349    5.784234   -0.253590
       -2.580681    2.526127    6.216234


  Final cell parameters and derivatives :

--------------------------------------------------------------------------------
       a            3.375100 Angstrom     dE/de1(xx)     0.000306 eV/strain
       b            5.790434 Angstrom     dE/de2(yy)    -0.000393 eV/strain
       c            7.189075 Angstrom     dE/de3(zz)     0.000926 eV/strain
       alpha       71.428201 Degrees      dE/de4(yz)     0.000543 eV/strain
       beta       118.001350 Degrees      dE/de5(xz)     0.000151 eV/strain
       gamma       90.001091 Degrees      dE/de6(xy)    -0.000240 eV/strain
--------------------------------------------------------------------------------

  Primitive cell volume =           115.699636 Angs**3

  Density of cell =      4.585873 g/cm**3

  Non-primitive cell volume =           115.699636 Angs**3


  Final internal derivatives :

--------------------------------------------------------------------------------
   No.  Atomic          a             b             c           Radius
        Label          (eV)          (eV)          (eV)        (eV/Angs)
--------------------------------------------------------------------------------
      1 Ti    c       0.000000      0.000000      0.000000      0.000000
      2 Ti    c      -0.000193     -0.000110     -0.000343      0.000000
      3 Ti    c      -0.000037      0.000859      0.001650      0.000000
      4 Ti    c      -0.000193     -0.000110     -0.000343      0.000000
      5 O     c       0.000028     -0.000111     -0.000185      0.000000
      6 O     c      -0.000043     -0.001139     -0.001046      0.000000
      7 O     c       0.000025      0.000085      0.001160      0.000000
      8 O     c       0.000220      0.000416     -0.001236      0.000000
      9 O     c      -0.000043     -0.001139     -0.001046      0.000000
     10 O     c       0.000025      0.000085      0.001160      0.000000
     11 O     c       0.000028     -0.000111     -0.000185      0.000000
     12 O     c       0.000220      0.000416     -0.001236      0.000000
--------------------------------------------------------------------------------
  Maximum abs         0.000220      0.001139      0.001650      0.000000
--------------------------------------------------------------------------------


  Time to end of optimisation =       0.0303 seconds


  Peak dynamic memory used =       1.82 MB 


  Timing analysis for GULP :

--------------------------------------------------------------------------------
  Task / Subroutine                                          Time (Seconds)
--------------------------------------------------------------------------------
  Calculation of reciprocal space energy and derivatives          0.0007
  Calculation of real space energy and derivatives                0.0198
--------------------------------------------------------------------------------
  Total CPU time                                                  0.0303
--------------------------------------------------------------------------------


  Job Finished at 10:54.15 29th May        2024                               

