********************************************************************************
*                       GENERAL UTILITY LATTICE PROGRAM                        *
*                                 Julian Gale                                  *
*                       Curtin Institute for Computation                       *
*                    School of Molecular and Life Sciences                     *
*                    Curtin University, Western Australia                      *
********************************************************************************
* Version = 6.0.0 * Last modified =  12th July 2021                            *
********************************************************************************
*  optimise     - perform optimisation run                                     *
*  conp         - constant pressure calculation                                *
*  conjugate    - use conjugate gradients minimiser                            *
********************************************************************************

  Job Started  at 10:54.15 29th May        2024                               

  Number of CPUs =     1


  Total number of configurations input =      1

********************************************************************************
*  Input for Configuration =   1                                               *
********************************************************************************

  Formula = Ti4O8                                                       

  Number of irreducible atoms/shells =      12


  Total number atoms/shells =      12

  Dimensionality = 3               :  Bulk   



  Cartesian lattice vectors (Angstroms) :

        6.218988   -0.648460    1.492177
       -1.536090    6.696278   -2.975904
        0.195011   -0.399575    3.722125

  Cell parameters (Angstroms/Degrees):

  a =       6.4283    alpha = 120.0448
  b =       7.4870    beta  =  73.0481
  c =       3.7486    gamma = 112.3939

  Initial cell volume =         143.245522 Angs**3

  Temperature of configuration =   0.00     K 

  Pressure of configuration =         0.000 GPa 

  Fractional coordinates of asymmetric unit :

--------------------------------------------------------------------------------
   No.  Atomic       x           y          z         Charge      Occupancy
        Label      (Frac)      (Frac)     (Frac)        (e)         (Frac)  
--------------------------------------------------------------------------------
      1 Ti    c    0.280172    0.813721    0.209350     2.19600    1.000000    
      2 Ti    c    0.479395 *  0.405012 *  0.701030 *   2.19600    1.000000    
      3 Ti    c    0.075435 *  0.407093 *  0.405091 *   2.19600    1.000000    
      4 Ti    c    0.876212 *  0.815803 *  0.913412 *   2.19600    1.000000    
      5 O     c    0.395562 *  0.107374 *  0.445308 *  -1.09800    1.000000    
      6 O     c    0.960044 *  0.113440 *  0.169133 *  -1.09800    1.000000    
      7 O     c    0.953812 *  0.805814 *  0.364623 *  -1.09800    1.000000    
      8 O     c    0.199304 *  0.750352 *  0.686415 *  -1.09800    1.000000    
      9 O     c    0.803122 *  0.490985 *  0.625139 *  -1.09800    1.000000    
     10 O     c    0.552484 *  0.729830 *  0.989302 *  -1.09800    1.000000    
     11 O     c    0.156303 *  0.470463 *  0.928026 *  -1.09800    1.000000    
     12 O     c    0.401795 *  0.415001 *  0.249818 *  -1.09800    1.000000    
--------------------------------------------------------------------------------



********************************************************************************
*  General input information                                                   *
********************************************************************************

  Species output for all configurations : 

--------------------------------------------------------------------------------
  Species    Type    Atomic    Atomic    Charge       Radii (Angs)     Library
                     Number     Mass       (e)     Cova   Ionic  VDW   Symbol
--------------------------------------------------------------------------------
    Ti       Core       22      47.88   2.196000   1.470  0.000  2.190          
    O        Core        8      16.00  -1.098000   0.730  0.000  1.360          
--------------------------------------------------------------------------------


  Lattice summation method               =    Ewald          (3-D)
                                         =    Parry          (2-D)
                                         =    Saunders et al (1-D)
  Accuracy factor for lattice sums       =   12.000


  Analytic derivatives to be used

  Time limit = Infinity

  Maximum range for interatomic potentials =    100000.000000 Angstroms

  General interatomic potentials :

--------------------------------------------------------------------------------
Atom  Types   Potential      Parameter       Value         Units   Cutoffs(Ang)
  1     2                                                            Min /  Max 
--------------------------------------------------------------------------------
Ti   c Ti   c Buckingham    Buckingham A     31120.100    eV        0.000 15.000
                            Buckingham rho  0.15400000    Ang       
                            Buckingham C     5.2500000    eV*Ang^6  
--------------------------------------------------------------------------------
O    c O    c Buckingham    Buckingham A     11782.700    eV        0.000 15.000
                            Buckingham rho  0.23400000    Ang       
                            Buckingham C     30.220000    eV*Ang^6  
--------------------------------------------------------------------------------
O    c Ti   c Buckingham    Buckingham A     16957.500    eV        0.000 15.000
                            Buckingham rho  0.19400000    Ang       
                            Buckingham C     12.590000    eV*Ang^6  
--------------------------------------------------------------------------------
Ti   c Ti   c Lennard       Lennard-Jones A  1.0000000    eV*Ang^m  0.000 15.000
                            Lennard-Jones B  0.0000000    eV*Ang^n  
                            Exponent m        12          None
                            Exponent n         6          None
--------------------------------------------------------------------------------
O    c O    c Lennard       Lennard-Jones A  1.0000000    eV*Ang^m  0.000 15.000
                            Lennard-Jones B  0.0000000    eV*Ang^n  
                            Exponent m        12          None
                            Exponent n         6          None
--------------------------------------------------------------------------------
O    c Ti   c Lennard       Lennard-Jones A  1.0000000    eV*Ang^m  0.000 15.000
                            Lennard-Jones B  0.0000000    eV*Ang^n  
                            Exponent m        12          None
                            Exponent n         6          None
--------------------------------------------------------------------------------

********************************************************************************
*  Output for configuration   1                                                *
********************************************************************************


  Components of energy : 

--------------------------------------------------------------------------------
  Interatomic potentials     =          12.88953822 eV    
  Monopole - monopole (real) =         -72.84658262 eV    
  Monopole - monopole (recip)=         -97.38636669 eV    
  Monopole - monopole (total)=        -170.23294931 eV    
--------------------------------------------------------------------------------
  Total lattice energy       =        -157.34341109 eV    
--------------------------------------------------------------------------------
  Total lattice energy       =          -15181.2340 kJ/(mole unit cells)
--------------------------------------------------------------------------------


  Number of variables =       39

  Maximum number of calculations  =          1000
  Maximum Hessian update interval =            10
  Maximum step size               =   1.000000000
  Maximum parameter tolerance     =   0.000010000
  Maximum function  tolerance     =   0.000010000
  Maximum gradient  tolerance     =   0.001000000
  Maximum gradient  component     =   0.010000000

  Symmetry not applied to optimisation

  Cell parameters to be optimised using strains

  Conjugate gradient optimiser to be used

  Lower half triangular hessian to be used

  Minimiser to switch to BFGS with exact hessian
  When gradient norm is less than     0.500000

  Start of bulk optimisation :

  Cycle:      0 Energy:      -157.343411  Gnorm:      0.000054  CPU:    0.031


  **** Optimisation achieved ****


  Final energy =    -157.34341109 eV      
  Final Gnorm  =       0.00005398

  Components of energy : 

--------------------------------------------------------------------------------
  Interatomic potentials     =          12.88953822 eV    
  Monopole - monopole (real) =         -72.84658262 eV    
  Monopole - monopole (recip)=         -97.38636669 eV    
  Monopole - monopole (total)=        -170.23294931 eV    
--------------------------------------------------------------------------------
  Total lattice energy       =        -157.34341109 eV    
--------------------------------------------------------------------------------
  Total lattice energy       =          -15181.2340 kJ/(mole unit cells)
--------------------------------------------------------------------------------

  Final fractional coordinates of atoms :

--------------------------------------------------------------------------------
   No.  Atomic        x           y          z          Radius
        Label       (Frac)      (Frac)     (Frac)       (Angs) 
--------------------------------------------------------------------------------
     1  Ti    c     0.280172    0.813721    0.209350    0.000000
     2  Ti    c     0.479395    0.405012    0.701030    0.000000
     3  Ti    c     0.075435    0.407093    0.405091    0.000000
     4  Ti    c     0.876212    0.815803    0.913412    0.000000
     5  O     c     0.395562    0.107374    0.445308    0.000000
     6  O     c     0.960044    0.113440    0.169133    0.000000
     7  O     c     0.953812    0.805814    0.364623    0.000000
     8  O     c     0.199304    0.750352    0.686415    0.000000
     9  O     c     0.803122    0.490985    0.625139    0.000000
    10  O     c     0.552484    0.729830    0.989302    0.000000
    11  O     c     0.156303    0.470463    0.928026    0.000000
    12  O     c     0.401795    0.415001    0.249818    0.000000
--------------------------------------------------------------------------------

  Final Cartesian lattice vectors (Angstroms) :

        6.218988   -0.648460    1.492177
       -1.536090    6.696278   -2.975904
        0.195011   -0.399575    3.722125


  Final cell parameters and derivatives :

--------------------------------------------------------------------------------
       a            6.428289 Angstrom     dE/de1(xx)    -0.000089 eV/strain
       b            7.487037 Angstrom     dE/de2(yy)    -0.000066 eV/strain
       c            3.748587 Angstrom     dE/de3(zz)     0.000029 eV/strain
       alpha      120.044805 Degrees      dE/de4(yz)    -0.000053 eV/strain
       beta        73.048062 Degrees      dE/de5(xz)    -0.000010 eV/strain
       gamma      112.393942 Degrees      dE/de6(xy)    -0.000053 eV/strain
--------------------------------------------------------------------------------

  Primitive cell volume =           143.245522 Angs**3

  Density of cell =      3.704017 g/cm**3

  Non-primitive cell volume =           143.245522 Angs**3


  Final internal derivatives :

--------------------------------------------------------------------------------
   No.  Atomic          a             b             c           Radius
        Label          (eV)          (eV)          (eV)        (eV/Angs)
--------------------------------------------------------------------------------
      1 Ti    c       0.000000      0.000000      0.000000      0.000000
      2 Ti    c       0.000577     -0.000279      0.000257      0.000000
      3 Ti    c       0.000414     -0.000690      0.000233      0.000000
      4 Ti    c      -0.000192      0.000719      0.000029      0.000000
      5 O     c      -0.000068     -0.000409      0.000008      0.000000
      6 O     c       0.000083     -0.000700     -0.000002      0.000000
      7 O     c       0.000263     -0.000027      0.000013      0.000000
      8 O     c       0.000086      0.000049      0.000036      0.000000
      9 O     c      -0.000459      0.000078     -0.000013      0.000000
     10 O     c      -0.000873      0.000550     -0.000081      0.000000
     11 O     c      -0.000056      0.000512     -0.000259      0.000000
     12 O     c      -0.000296      0.000411     -0.000227      0.000000
--------------------------------------------------------------------------------
  Maximum abs         0.000873      0.000719      0.000259      0.000000
--------------------------------------------------------------------------------


  Time to end of optimisation =       0.0314 seconds


  Peak dynamic memory used =       1.82 MB 


  Timing analysis for GULP :

--------------------------------------------------------------------------------
  Task / Subroutine                                          Time (Seconds)
--------------------------------------------------------------------------------
  Calculation of reciprocal space energy and derivatives          0.0006
  Calculation of real space energy and derivatives                0.0201
--------------------------------------------------------------------------------
  Total CPU time                                                  0.0314
--------------------------------------------------------------------------------


  Job Finished at 10:54.15 29th May        2024                               

