********************************************************************************
*                       GENERAL UTILITY LATTICE PROGRAM                        *
*                                 Julian Gale                                  *
*                       Curtin Institute for Computation                       *
*                    School of Molecular and Life Sciences                     *
*                    Curtin University, Western Australia                      *
********************************************************************************
* Version = 6.0.0 * Last modified =  12th July 2021                            *
********************************************************************************
*  optimise     - perform optimisation run                                     *
*  conp         - constant pressure calculation                                *
*  conjugate    - use conjugate gradients minimiser                            *
********************************************************************************

  Job Started  at 10:54.15 29th May        2024                               

  Number of CPUs =     1


  Total number of configurations input =      1

********************************************************************************
*  Input for Configuration =   1                                               *
********************************************************************************

  Formula = Ti4O8                                                       

  Number of irreducible atoms/shells =      12


  Total number atoms/shells =      12

  Dimensionality = 3               :  Bulk   



  Cartesian lattice vectors (Angstroms) :

        6.059358    0.026349   -2.370086
       -0.020881    3.568161   -0.013748
       -1.260178    0.014635    5.709077

  Cell parameters (Angstroms/Degrees):

  a =       6.5064    alpha =  89.9999
  b =       3.5682    beta  = 123.8090
  c =       5.8465    gamma =  89.9998

  Initial cell volume =         112.783018 Angs**3

  Temperature of configuration =   0.00     K 

  Pressure of configuration =         0.000 GPa 

  Fractional coordinates of asymmetric unit :

--------------------------------------------------------------------------------
   No.  Atomic       x           y          z         Charge      Occupancy
        Label      (Frac)      (Frac)     (Frac)        (e)         (Frac)  
--------------------------------------------------------------------------------
      1 Ti    c    0.677653    0.929385    0.599207     2.19600    1.000000    
      2 Ti    c    0.166493 *  0.429374 *  0.076873 *   2.19600    1.000000    
      3 Ti    c    0.666491 *  0.429378 *  0.076871 *   2.19600    1.000000    
      4 Ti    c    0.177657 *  0.929381 *  0.599208 *   2.19600    1.000000    
      5 O     c    0.330118 *  0.084627 *  0.404131 *  -1.09800    1.000000    
      6 O     c    0.514031 *  0.584619 *  0.271953 *  -1.09800    1.000000    
      7 O     c    0.770355 *  0.423002 *  0.784619 *  -1.09800    1.000000    
      8 O     c    0.073789 *  0.923004 *  0.891473 *  -1.09800    1.000000    
      9 O     c    0.014029 *  0.584624 *  0.271950 *  -1.09800    1.000000    
     10 O     c    0.830119 *  0.084624 *  0.404131 *  -1.09800    1.000000    
     11 O     c    0.573776 *  0.923002 *  0.891464 *  -1.09800    1.000000    
     12 O     c    0.270352 *  0.423006 *  0.784614 *  -1.09800    1.000000    
--------------------------------------------------------------------------------



********************************************************************************
*  General input information                                                   *
********************************************************************************

  Species output for all configurations : 

--------------------------------------------------------------------------------
  Species    Type    Atomic    Atomic    Charge       Radii (Angs)     Library
                     Number     Mass       (e)     Cova   Ionic  VDW   Symbol
--------------------------------------------------------------------------------
    Ti       Core       22      47.88   2.196000   1.470  0.000  2.190          
    O        Core        8      16.00  -1.098000   0.730  0.000  1.360          
--------------------------------------------------------------------------------


  Lattice summation method               =    Ewald          (3-D)
                                         =    Parry          (2-D)
                                         =    Saunders et al (1-D)
  Accuracy factor for lattice sums       =   12.000


  Analytic derivatives to be used

  Time limit = Infinity

  Maximum range for interatomic potentials =    100000.000000 Angstroms

  General interatomic potentials :

--------------------------------------------------------------------------------
Atom  Types   Potential      Parameter       Value         Units   Cutoffs(Ang)
  1     2                                                            Min /  Max 
--------------------------------------------------------------------------------
Ti   c Ti   c Buckingham    Buckingham A     31120.100    eV        0.000 15.000
                            Buckingham rho  0.15400000    Ang       
                            Buckingham C     5.2500000    eV*Ang^6  
--------------------------------------------------------------------------------
O    c O    c Buckingham    Buckingham A     11782.700    eV        0.000 15.000
                            Buckingham rho  0.23400000    Ang       
                            Buckingham C     30.220000    eV*Ang^6  
--------------------------------------------------------------------------------
O    c Ti   c Buckingham    Buckingham A     16957.500    eV        0.000 15.000
                            Buckingham rho  0.19400000    Ang       
                            Buckingham C     12.590000    eV*Ang^6  
--------------------------------------------------------------------------------
Ti   c Ti   c Lennard       Lennard-Jones A  1.0000000    eV*Ang^m  0.000 15.000
                            Lennard-Jones B  0.0000000    eV*Ang^n  
                            Exponent m        12          None
                            Exponent n         6          None
--------------------------------------------------------------------------------
O    c O    c Lennard       Lennard-Jones A  1.0000000    eV*Ang^m  0.000 15.000
                            Lennard-Jones B  0.0000000    eV*Ang^n  
                            Exponent m        12          None
                            Exponent n         6          None
--------------------------------------------------------------------------------
O    c Ti   c Lennard       Lennard-Jones A  1.0000000    eV*Ang^m  0.000 15.000
                            Lennard-Jones B  0.0000000    eV*Ang^n  
                            Exponent m        12          None
                            Exponent n         6          None
--------------------------------------------------------------------------------

********************************************************************************
*  Output for configuration   1                                                *
********************************************************************************


  Components of energy : 

--------------------------------------------------------------------------------
  Interatomic potentials     =          11.51075772 eV    
  Monopole - monopole (real) =         -63.24752341 eV    
  Monopole - monopole (recip)=        -105.77343239 eV    
  Monopole - monopole (total)=        -169.02095580 eV    
--------------------------------------------------------------------------------
  Total lattice energy       =        -157.51019808 eV    
--------------------------------------------------------------------------------
  Total lattice energy       =          -15197.3264 kJ/(mole unit cells)
--------------------------------------------------------------------------------


  Number of variables =       39

  Maximum number of calculations  =          1000
  Maximum Hessian update interval =            10
  Maximum step size               =   1.000000000
  Maximum parameter tolerance     =   0.000010000
  Maximum function  tolerance     =   0.000010000
  Maximum gradient  tolerance     =   0.001000000
  Maximum gradient  component     =   0.010000000

  Symmetry not applied to optimisation

  Cell parameters to be optimised using strains

  Conjugate gradient optimiser to be used

  Lower half triangular hessian to be used

  Minimiser to switch to BFGS with exact hessian
  When gradient norm is less than     0.500000

  Start of bulk optimisation :

  Cycle:      0 Energy:      -157.510198  Gnorm:      0.000148  CPU:    0.026


  **** Optimisation achieved ****


  Final energy =    -157.51019808 eV      
  Final Gnorm  =       0.00014768

  Components of energy : 

--------------------------------------------------------------------------------
  Interatomic potentials     =          11.51075772 eV    
  Monopole - monopole (real) =         -63.24752341 eV    
  Monopole - monopole (recip)=        -105.77343239 eV    
  Monopole - monopole (total)=        -169.02095580 eV    
--------------------------------------------------------------------------------
  Total lattice energy       =        -157.51019808 eV    
--------------------------------------------------------------------------------
  Total lattice energy       =          -15197.3264 kJ/(mole unit cells)
--------------------------------------------------------------------------------

  Final fractional coordinates of atoms :

--------------------------------------------------------------------------------
   No.  Atomic        x           y          z          Radius
        Label       (Frac)      (Frac)     (Frac)       (Angs) 
--------------------------------------------------------------------------------
     1  Ti    c     0.677653    0.929385    0.599207    0.000000
     2  Ti    c     0.166493    0.429374    0.076873    0.000000
     3  Ti    c     0.666491    0.429378    0.076871    0.000000
     4  Ti    c     0.177657    0.929381    0.599208    0.000000
     5  O     c     0.330118    0.084627    0.404131    0.000000
     6  O     c     0.514031    0.584619    0.271953    0.000000
     7  O     c     0.770355    0.423002    0.784619    0.000000
     8  O     c     0.073789    0.923004    0.891473    0.000000
     9  O     c     0.014029    0.584624    0.271950    0.000000
    10  O     c     0.830119    0.084624    0.404131    0.000000
    11  O     c     0.573776    0.923002    0.891464    0.000000
    12  O     c     0.270352    0.423006    0.784614    0.000000
--------------------------------------------------------------------------------

  Final Cartesian lattice vectors (Angstroms) :

        6.059358    0.026349   -2.370086
       -0.020881    3.568161   -0.013748
       -1.260178    0.014635    5.709077


  Final cell parameters and derivatives :

--------------------------------------------------------------------------------
       a            6.506445 Angstrom     dE/de1(xx)     0.001012 eV/strain
       b            3.568249 Angstrom     dE/de2(yy)     0.000373 eV/strain
       c            5.846522 Angstrom     dE/de3(zz)     0.000022 eV/strain
       alpha       89.999875 Degrees      dE/de4(yz)     0.000115 eV/strain
       beta       123.808993 Degrees      dE/de5(xz)     0.000211 eV/strain
       gamma       89.999813 Degrees      dE/de6(xy)     0.000249 eV/strain
--------------------------------------------------------------------------------

  Primitive cell volume =           112.783018 Angs**3

  Density of cell =      4.704466 g/cm**3

  Non-primitive cell volume =           112.783018 Angs**3


  Final internal derivatives :

--------------------------------------------------------------------------------
   No.  Atomic          a             b             c           Radius
        Label          (eV)          (eV)          (eV)        (eV/Angs)
--------------------------------------------------------------------------------
      1 Ti    c       0.000000      0.000000      0.000000      0.000000
      2 Ti    c       0.000891     -0.001313     -0.000625      0.000000
      3 Ti    c       0.000746     -0.000413     -0.001766      0.000000
      4 Ti    c       0.001857     -0.000129     -0.000707      0.000000
      5 O     c      -0.000564      0.000534      0.000385      0.000000
      6 O     c       0.000280     -0.000596     -0.001090      0.000000
      7 O     c      -0.001202     -0.000235      0.001151      0.000000
      8 O     c       0.002609      0.000417      0.000989      0.000000
      9 O     c       0.000105     -0.000300     -0.000751      0.000000
     10 O     c       0.000631      0.000591     -0.000302      0.000000
     11 O     c      -0.001525     -0.000105      0.000747      0.000000
     12 O     c      -0.001650      0.000799      0.000502      0.000000
--------------------------------------------------------------------------------
  Maximum abs         0.002609      0.001313      0.001766      0.000000
--------------------------------------------------------------------------------


  Time to end of optimisation =       0.0265 seconds


  Peak dynamic memory used =       1.82 MB 


  Timing analysis for GULP :

--------------------------------------------------------------------------------
  Task / Subroutine                                          Time (Seconds)
--------------------------------------------------------------------------------
  Calculation of reciprocal space energy and derivatives          0.0006
  Calculation of real space energy and derivatives                0.0158
--------------------------------------------------------------------------------
  Total CPU time                                                  0.0265
--------------------------------------------------------------------------------


  Job Finished at 10:54.15 29th May        2024                               

