********************************************************************************
*                       GENERAL UTILITY LATTICE PROGRAM                        *
*                                 Julian Gale                                  *
*                       Curtin Institute for Computation                       *
*                    School of Molecular and Life Sciences                     *
*                    Curtin University, Western Australia                      *
********************************************************************************
* Version = 6.0.0 * Last modified =  12th July 2021                            *
********************************************************************************
*  optimise     - perform optimisation run                                     *
*  conp         - constant pressure calculation                                *
*  conjugate    - use conjugate gradients minimiser                            *
********************************************************************************

  Job Started  at 10:54.15 29th May        2024                               

  Number of CPUs =     1


  Total number of configurations input =      1

********************************************************************************
*  Input for Configuration =   1                                               *
********************************************************************************

  Formula = Ti4O8                                                       

  Number of irreducible atoms/shells =      12


  Total number atoms/shells =      12

  Dimensionality = 3               :  Bulk   



  Cartesian lattice vectors (Angstroms) :

        9.359467    1.482059   -0.036773
        0.497148    2.966979   -0.040799
        0.008068    0.060434    4.492561

  Cell parameters (Angstroms/Degrees):

  a =       9.4762    alpha =  89.9999
  b =       3.0086    beta  =  90.0002
  c =       4.4930    gamma =  71.4886

  Initial cell volume =         121.467697 Angs**3

  Temperature of configuration =   0.00     K 

  Pressure of configuration =         0.000 GPa 

  Fractional coordinates of asymmetric unit :

--------------------------------------------------------------------------------
   No.  Atomic       x           y          z         Charge      Occupancy
        Label      (Frac)      (Frac)     (Frac)        (e)         (Frac)  
--------------------------------------------------------------------------------
      1 Ti    c    0.876696    0.965400    0.758045     2.19600    1.000000    
      2 Ti    c    0.126698 *  0.215401 *  0.258043 *   2.19600    1.000000    
      3 Ti    c    0.376698 *  0.465394 *  0.758047 *   2.19600    1.000000    
      4 Ti    c    0.626696 *  0.715398 *  0.258053 *   2.19600    1.000000    
      5 O     c    0.778336 *  0.563760 *  0.561341 *  -1.09800    1.000000    
      6 O     c    0.225054 *  0.617033 *  0.061329 *  -1.09800    1.000000    
      7 O     c    0.278341 *  0.063749 *  0.561331 *  -1.09800    1.000000    
      8 O     c    0.725054 *  0.117042 *  0.061351 *  -1.09800    1.000000    
      9 O     c    0.475057 *  0.867039 *  0.954761 *  -1.09800    1.000000    
     10 O     c    0.528338 *  0.313756 *  0.454760 *  -1.09800    1.000000    
     11 O     c    0.975056 *  0.367040 *  0.954757 *  -1.09800    1.000000    
     12 O     c    0.028336 *  0.813757 *  0.454758 *  -1.09800    1.000000    
--------------------------------------------------------------------------------



********************************************************************************
*  General input information                                                   *
********************************************************************************

  Species output for all configurations : 

--------------------------------------------------------------------------------
  Species    Type    Atomic    Atomic    Charge       Radii (Angs)     Library
                     Number     Mass       (e)     Cova   Ionic  VDW   Symbol
--------------------------------------------------------------------------------
    Ti       Core       22      47.88   2.196000   1.470  0.000  2.190          
    O        Core        8      16.00  -1.098000   0.730  0.000  1.360          
--------------------------------------------------------------------------------


  Lattice summation method               =    Ewald          (3-D)
                                         =    Parry          (2-D)
                                         =    Saunders et al (1-D)
  Accuracy factor for lattice sums       =   12.000


  Analytic derivatives to be used

  Time limit = Infinity

  Maximum range for interatomic potentials =    100000.000000 Angstroms

  General interatomic potentials :

--------------------------------------------------------------------------------
Atom  Types   Potential      Parameter       Value         Units   Cutoffs(Ang)
  1     2                                                            Min /  Max 
--------------------------------------------------------------------------------
Ti   c Ti   c Buckingham    Buckingham A     31120.100    eV        0.000 15.000
                            Buckingham rho  0.15400000    Ang       
                            Buckingham C     5.2500000    eV*Ang^6  
--------------------------------------------------------------------------------
O    c O    c Buckingham    Buckingham A     11782.700    eV        0.000 15.000
                            Buckingham rho  0.23400000    Ang       
                            Buckingham C     30.220000    eV*Ang^6  
--------------------------------------------------------------------------------
O    c Ti   c Buckingham    Buckingham A     16957.500    eV        0.000 15.000
                            Buckingham rho  0.19400000    Ang       
                            Buckingham C     12.590000    eV*Ang^6  
--------------------------------------------------------------------------------
Ti   c Ti   c Lennard       Lennard-Jones A  1.0000000    eV*Ang^m  0.000 15.000
                            Lennard-Jones B  0.0000000    eV*Ang^n  
                            Exponent m        12          None
                            Exponent n         6          None
--------------------------------------------------------------------------------
O    c O    c Lennard       Lennard-Jones A  1.0000000    eV*Ang^m  0.000 15.000
                            Lennard-Jones B  0.0000000    eV*Ang^n  
                            Exponent m        12          None
                            Exponent n         6          None
--------------------------------------------------------------------------------
O    c Ti   c Lennard       Lennard-Jones A  1.0000000    eV*Ang^m  0.000 15.000
                            Lennard-Jones B  0.0000000    eV*Ang^n  
                            Exponent m        12          None
                            Exponent n         6          None
--------------------------------------------------------------------------------

********************************************************************************
*  Output for configuration   1                                                *
********************************************************************************


  Components of energy : 

--------------------------------------------------------------------------------
  Interatomic potentials     =          12.37926773 eV    
  Monopole - monopole (real) =         -68.43770213 eV    
  Monopole - monopole (recip)=        -103.14299516 eV    
  Monopole - monopole (total)=        -171.58069730 eV    
--------------------------------------------------------------------------------
  Total lattice energy       =        -159.20142957 eV    
--------------------------------------------------------------------------------
  Total lattice energy       =          -15360.5043 kJ/(mole unit cells)
--------------------------------------------------------------------------------


  Number of variables =       39

  Maximum number of calculations  =          1000
  Maximum Hessian update interval =            10
  Maximum step size               =   1.000000000
  Maximum parameter tolerance     =   0.000010000
  Maximum function  tolerance     =   0.000010000
  Maximum gradient  tolerance     =   0.001000000
  Maximum gradient  component     =   0.010000000

  Symmetry not applied to optimisation

  Cell parameters to be optimised using strains

  Conjugate gradient optimiser to be used

  Lower half triangular hessian to be used

  Minimiser to switch to BFGS with exact hessian
  When gradient norm is less than     0.500000

  Start of bulk optimisation :

  Cycle:      0 Energy:      -159.201430  Gnorm:      0.000341  CPU:    0.023


  **** Optimisation achieved ****


  Final energy =    -159.20142957 eV      
  Final Gnorm  =       0.00034126

  Components of energy : 

--------------------------------------------------------------------------------
  Interatomic potentials     =          12.37926773 eV    
  Monopole - monopole (real) =         -68.43770213 eV    
  Monopole - monopole (recip)=        -103.14299516 eV    
  Monopole - monopole (total)=        -171.58069730 eV    
--------------------------------------------------------------------------------
  Total lattice energy       =        -159.20142957 eV    
--------------------------------------------------------------------------------
  Total lattice energy       =          -15360.5043 kJ/(mole unit cells)
--------------------------------------------------------------------------------

  Final fractional coordinates of atoms :

--------------------------------------------------------------------------------
   No.  Atomic        x           y          z          Radius
        Label       (Frac)      (Frac)     (Frac)       (Angs) 
--------------------------------------------------------------------------------
     1  Ti    c     0.876696    0.965400    0.758045    0.000000
     2  Ti    c     0.126698    0.215401    0.258043    0.000000
     3  Ti    c     0.376698    0.465394    0.758047    0.000000
     4  Ti    c     0.626696    0.715398    0.258053    0.000000
     5  O     c     0.778336    0.563760    0.561341    0.000000
     6  O     c     0.225054    0.617033    0.061329    0.000000
     7  O     c     0.278341    0.063749    0.561331    0.000000
     8  O     c     0.725054    0.117042    0.061351    0.000000
     9  O     c     0.475057    0.867039    0.954761    0.000000
    10  O     c     0.528338    0.313756    0.454760    0.000000
    11  O     c     0.975056    0.367040    0.954757    0.000000
    12  O     c     0.028336    0.813757    0.454758    0.000000
--------------------------------------------------------------------------------

  Final Cartesian lattice vectors (Angstroms) :

        9.359467    1.482059   -0.036773
        0.497148    2.966979   -0.040799
        0.008068    0.060434    4.492561


  Final cell parameters and derivatives :

--------------------------------------------------------------------------------
       a            9.476153 Angstrom     dE/de1(xx)    -0.001028 eV/strain
       b            3.008618 Angstrom     dE/de2(yy)    -0.001012 eV/strain
       c            4.492975 Angstrom     dE/de3(zz)    -0.000526 eV/strain
       alpha       89.999892 Degrees      dE/de4(yz)     0.000490 eV/strain
       beta        90.000170 Degrees      dE/de5(xz)    -0.000578 eV/strain
       gamma       71.488594 Degrees      dE/de6(xy)     0.000000 eV/strain
--------------------------------------------------------------------------------

  Primitive cell volume =           121.467697 Angs**3

  Density of cell =      4.368107 g/cm**3

  Non-primitive cell volume =           121.467697 Angs**3


  Final internal derivatives :

--------------------------------------------------------------------------------
   No.  Atomic          a             b             c           Radius
        Label          (eV)          (eV)          (eV)        (eV/Angs)
--------------------------------------------------------------------------------
      1 Ti    c       0.000000      0.000000      0.000000      0.000000
      2 Ti    c       0.004703      0.001596     -0.001218      0.000000
      3 Ti    c      -0.000680     -0.000191     -0.000355      0.000000
      4 Ti    c      -0.000467     -0.000186      0.000359      0.000000
      5 O     c      -0.000213      0.000030     -0.001024      0.000000
      6 O     c      -0.002615     -0.001260     -0.000551      0.000000
      7 O     c       0.001705     -0.000207      0.000388      0.000000
      8 O     c      -0.007665      0.000119      0.005124      0.000000
      9 O     c       0.003278      0.000460      0.000625      0.000000
     10 O     c       0.002508      0.000034     -0.001482      0.000000
     11 O     c       0.001174      0.000161      0.000071      0.000000
     12 O     c      -0.005110     -0.000572      0.001189      0.000000
--------------------------------------------------------------------------------
  Maximum abs         0.007665      0.001596      0.005124      0.000000
--------------------------------------------------------------------------------


  Time to end of optimisation =       0.0231 seconds


  Peak dynamic memory used =       1.82 MB 


  Timing analysis for GULP :

--------------------------------------------------------------------------------
  Task / Subroutine                                          Time (Seconds)
--------------------------------------------------------------------------------
  Calculation of reciprocal space energy and derivatives          0.0006
  Calculation of real space energy and derivatives                0.0129
--------------------------------------------------------------------------------
  Total CPU time                                                  0.0231
--------------------------------------------------------------------------------


  Job Finished at 10:54.15 29th May        2024                               

