********************************************************************************
*                       GENERAL UTILITY LATTICE PROGRAM                        *
*                                 Julian Gale                                  *
*                       Curtin Institute for Computation                       *
*                    School of Molecular and Life Sciences                     *
*                    Curtin University, Western Australia                      *
********************************************************************************
* Version = 6.0.0 * Last modified =  12th July 2021                            *
********************************************************************************
*  optimise     - perform optimisation run                                     *
*  conp         - constant pressure calculation                                *
*  conjugate    - use conjugate gradients minimiser                            *
********************************************************************************

  Job Started  at 11:03.51 29th May        2024                               

  Number of CPUs =     1


  Total number of configurations input =      1

********************************************************************************
*  Input for Configuration =   1                                               *
********************************************************************************

  Formula = Ti4O8                                                       

  Number of irreducible atoms/shells =      12


  Total number atoms/shells =      12

  Dimensionality = 3               :  Bulk   



  Cartesian lattice vectors (Angstroms) :

        8.527243    0.000000    0.044292
        0.000000    6.695478    0.000000
        0.000000    0.000000    3.849768

  Cell parameters (Angstroms/Degrees):

  a =       8.5274    alpha =  90.0000
  b =       6.6955    beta  =  89.7024
  c =       3.8498    gamma =  90.0000

  Initial cell volume =         219.798554 Angs**3

  Temperature of configuration =   0.00     K 

  Pressure of configuration =         0.000 GPa 

  Fractional coordinates of asymmetric unit :

--------------------------------------------------------------------------------
   No.  Atomic       x           y          z         Charge      Occupancy
        Label      (Frac)      (Frac)     (Frac)        (e)         (Frac)  
--------------------------------------------------------------------------------
      1 Ti    c    0.640717    0.000000    0.888152     2.19600    1.000000    
      2 Ti    c    0.140717 *  0.500000 *  0.888152 *   2.19600    1.000000    
      3 Ti    c    0.811605 *  0.000000 *  0.332911 *   2.19600    1.000000    
      4 Ti    c    0.311605 *  0.500000 *  0.332911 *   2.19600    1.000000    
      5 O     c    0.849775 *  0.249803 *  0.391663 *  -1.09800    1.000000    
      6 O     c    0.849775 *  0.750197 *  0.391663 *  -1.09800    1.000000    
      7 O     c    0.349775 *  0.749803 *  0.391663 *  -1.09800    1.000000    
      8 O     c    0.349775 *  0.250197 *  0.391663 *  -1.09800    1.000000    
      9 O     c    0.457995 *  0.000000 *  0.724433 *  -1.09800    1.000000    
     10 O     c    0.957995 *  0.500000 *  0.724433 *  -1.09800    1.000000    
     11 O     c    0.464210 *  0.000000 *  0.491451 *  -1.09800    1.000000    
     12 O     c    0.964210 *  0.500000 *  0.491451 *  -1.09800    1.000000    
--------------------------------------------------------------------------------



********************************************************************************
*  General input information                                                   *
********************************************************************************

  Species output for all configurations : 

--------------------------------------------------------------------------------
  Species    Type    Atomic    Atomic    Charge       Radii (Angs)     Library
                     Number     Mass       (e)     Cova   Ionic  VDW   Symbol
--------------------------------------------------------------------------------
    Ti       Core       22      47.88   2.196000   1.470  0.000  2.190          
    O        Core        8      16.00  -1.098000   0.730  0.000  1.360          
--------------------------------------------------------------------------------


  Lattice summation method               =    Ewald          (3-D)
                                         =    Parry          (2-D)
                                         =    Saunders et al (1-D)
  Accuracy factor for lattice sums       =   12.000


  Analytic derivatives to be used

  Time limit = Infinity

  Maximum range for interatomic potentials =    100000.000000 Angstroms

  General interatomic potentials :

--------------------------------------------------------------------------------
Atom  Types   Potential      Parameter       Value         Units   Cutoffs(Ang)
  1     2                                                            Min /  Max 
--------------------------------------------------------------------------------
Ti   c Ti   c Buckingham    Buckingham A     31120.100    eV        0.000 15.000
                            Buckingham rho  0.15400000    Ang       
                            Buckingham C     5.2500000    eV*Ang^6  
--------------------------------------------------------------------------------
O    c O    c Buckingham    Buckingham A     11782.700    eV        0.000 15.000
                            Buckingham rho  0.23400000    Ang       
                            Buckingham C     30.220000    eV*Ang^6  
--------------------------------------------------------------------------------
O    c Ti   c Buckingham    Buckingham A     16957.500    eV        0.000 15.000
                            Buckingham rho  0.19400000    Ang       
                            Buckingham C     12.590000    eV*Ang^6  
--------------------------------------------------------------------------------
Ti   c Ti   c Lennard       Lennard-Jones A  1.0000000    eV*Ang^m  0.000 15.000
                            Lennard-Jones B  0.0000000    eV*Ang^n  
                            Exponent m        12          None
                            Exponent n         6          None
--------------------------------------------------------------------------------
O    c O    c Lennard       Lennard-Jones A  1.0000000    eV*Ang^m  0.000 15.000
                            Lennard-Jones B  0.0000000    eV*Ang^n  
                            Exponent m        12          None
                            Exponent n         6          None
--------------------------------------------------------------------------------
O    c Ti   c Lennard       Lennard-Jones A  1.0000000    eV*Ang^m  0.000 15.000
                            Lennard-Jones B  0.0000000    eV*Ang^n  
                            Exponent m        12          None
                            Exponent n         6          None
--------------------------------------------------------------------------------

********************************************************************************
*  Output for configuration   1                                                *
********************************************************************************


  Components of energy : 

--------------------------------------------------------------------------------
  Interatomic potentials     =         420.74153756 eV    
  Monopole - monopole (real) =          -7.15231804 eV    
  Monopole - monopole (recip)=         -77.97699817 eV    
  Monopole - monopole (total)=         -85.12931621 eV    
--------------------------------------------------------------------------------
  Total lattice energy       =         335.61222134 eV    
--------------------------------------------------------------------------------
  Total lattice energy       =           32381.4491 kJ/(mole unit cells)
--------------------------------------------------------------------------------


  Number of variables =       39

  Maximum number of calculations  =          1000
  Maximum Hessian update interval =            10
  Maximum step size               =   1.000000000
  Maximum parameter tolerance     =   0.000010000
  Maximum function  tolerance     =   0.000010000
  Maximum gradient  tolerance     =   0.001000000
  Maximum gradient  component     =   0.010000000

  Symmetry not applied to optimisation

  Cell parameters to be optimised using strains

  Conjugate gradient optimiser to be used

  Lower half triangular hessian to be used

  Minimiser to switch to BFGS with exact hessian
  When gradient norm is less than     0.500000

  Start of bulk optimisation :

  Cycle:      0 Energy:       335.612221  Gnorm:    157.091139  CPU:    0.017
  Cycle:      1 Energy:       -87.786818  Gnorm:      7.598546  CPU:    0.045
  Cycle:      2 Energy:      -111.122709  Gnorm:      8.872344  CPU:    0.057
  Cycle:      3 Energy:      -121.220850  Gnorm:      2.849982  CPU:    0.073
  Cycle:      4 Energy:      -122.840221  Gnorm:      1.244763  CPU:    0.088
  Cycle:      5 Energy:      -123.758342  Gnorm:      1.837975  CPU:    0.103
  Cycle:      6 Energy:      -126.796185  Gnorm:      5.240702  CPU:    0.119
  Cycle:      7 Energy:      -130.941299  Gnorm:      2.720888  CPU:    0.131
  Cycle:      8 Energy:      -132.228670  Gnorm:      1.252135  CPU:    0.146
  Cycle:      9 Energy:      -133.360068  Gnorm:      0.954729  CPU:    0.165
  Cycle:     10 Energy:      -133.657826  Gnorm:      0.955444  CPU:    0.177
  Cycle:     11 Energy:      -134.038145  Gnorm:      0.988819  CPU:    0.193
  Cycle:     12 Energy:      -134.559409  Gnorm:      1.145229  CPU:    0.208
  Cycle:     13 Energy:      -135.122097  Gnorm:      1.672299  CPU:    0.221
  Cycle:     14 Energy:      -136.149878  Gnorm:      1.968710  CPU:    0.238
  Cycle:     15 Energy:      -138.444940  Gnorm:      2.576361  CPU:    0.256
  Cycle:     16 Energy:      -141.617246  Gnorm:      2.031830  CPU:    0.278
  Cycle:     17 Energy:      -144.212248  Gnorm:      2.090139  CPU:    0.298
  Cycle:     18 Energy:      -145.020960  Gnorm:      2.076535  CPU:    0.320
  Cycle:     19 Energy:      -146.847740  Gnorm:      1.658658  CPU:    0.346
  Cycle:     20 Energy:      -147.880075  Gnorm:      1.256954  CPU:    0.373
  Cycle:     21 Energy:      -149.858440  Gnorm:      1.562972  CPU:    0.399
  Cycle:     22 Energy:      -150.582752  Gnorm:      1.117632  CPU:    0.426
  Cycle:     23 Energy:      -151.405285  Gnorm:      0.525713  CPU:    0.453
  Cycle:     24 Energy:      -151.681341  Gnorm:      0.468563  CPU:    0.481
  ** Hessian calculated **
  Cycle:     25 Energy:      -152.182703  Gnorm:      0.653052  CPU:    0.545
  Cycle:     26 Energy:      -152.875663  Gnorm:      0.990055  CPU:    0.574
  Cycle:     27 Energy:      -153.570772  Gnorm:      1.184284  CPU:    0.595
  Cycle:     28 Energy:      -154.985343  Gnorm:      0.962412  CPU:    0.621
  Cycle:     29 Energy:      -156.083905  Gnorm:      0.816704  CPU:    0.642
  Cycle:     30 Energy:      -156.830811  Gnorm:      0.514280  CPU:    0.663
  Cycle:     31 Energy:      -157.233702  Gnorm:      0.601339  CPU:    0.688
  Cycle:     32 Energy:      -157.595830  Gnorm:      0.659830  CPU:    0.709
  Cycle:     33 Energy:      -158.061635  Gnorm:      0.589406  CPU:    0.735
  Cycle:     34 Energy:      -158.346503  Gnorm:      0.395684  CPU:    0.756
  ** Hessian calculated **
  Cycle:     35 Energy:      -159.021849  Gnorm:      0.249362  CPU:    0.821
  Cycle:     36 Energy:      -159.172302  Gnorm:      0.082847  CPU:    0.847
  Cycle:     37 Energy:      -159.199446  Gnorm:      0.039545  CPU:    0.868
  Cycle:     38 Energy:      -159.201299  Gnorm:      0.009992  CPU:    0.894
  Cycle:     39 Energy:      -159.201422  Gnorm:      0.002209  CPU:    0.915
  Cycle:     40 Energy:      -159.201429  Gnorm:      0.000660  CPU:    0.936


  **** Optimisation achieved ****


  Final energy =    -159.20142960 eV      
  Final Gnorm  =       0.00015408

  Components of energy : 

--------------------------------------------------------------------------------
  Interatomic potentials     =          12.37915803 eV    
  Monopole - monopole (real) =         -68.43761660 eV    
  Monopole - monopole (recip)=        -103.14297102 eV    
  Monopole - monopole (total)=        -171.58058762 eV    
--------------------------------------------------------------------------------
  Total lattice energy       =        -159.20142960 eV    
--------------------------------------------------------------------------------
  Total lattice energy       =          -15360.5043 kJ/(mole unit cells)
--------------------------------------------------------------------------------

  Final fractional coordinates of atoms :

--------------------------------------------------------------------------------
   No.  Atomic        x           y          z          Radius
        Label       (Frac)      (Frac)     (Frac)       (Angs) 
--------------------------------------------------------------------------------
     1  Ti    c     0.640717    0.000000    0.888152    0.000000
     2  Ti    c     0.140722    0.500000    0.888164    0.000000
     3  Ti    c     0.140718    0.000000    0.388170    0.000000
     4  Ti    c     0.640721    0.500000    0.388157    0.000000
     5  O     c     0.140719    0.196715    0.888164    0.000000
     6  O     c     0.140719    0.803285    0.888164    0.000000
     7  O     c     0.640720    0.696716    0.888157    0.000000
     8  O     c     0.640720    0.303284    0.888157    0.000000
     9  O     c     0.444003    0.000000    0.388150    0.000000
    10  O     c     0.944008    0.500000    0.388164    0.000000
    11  O     c     0.837436    1.000000    0.388175    0.000000
    12  O     c     0.337438    0.500000    0.388161    0.000000
--------------------------------------------------------------------------------

  Final Cartesian lattice vectors (Angstroms) :

        6.353922    0.000000    0.032612
        0.000000    6.353981    0.000000
       -0.015461    0.000000    3.008582


  Final cell parameters and derivatives :

--------------------------------------------------------------------------------
       a            6.354006 Angstrom     dE/de1(xx)    -0.000039 eV/strain
       b            6.353981 Angstrom     dE/de2(yy)    -0.001364 eV/strain
       c            3.008622 Angstrom     dE/de3(zz)    -0.000115 eV/strain
       alpha       90.000000 Degrees      dE/de4(yz)     0.000000 eV/strain
       beta        90.000368 Degrees      dE/de5(xz)    -0.000195 eV/strain
       gamma       90.000000 Degrees      dE/de6(xy)    -0.000000 eV/strain
--------------------------------------------------------------------------------

  Primitive cell volume =           121.467774 Angs**3

  Density of cell =      4.368104 g/cm**3

  Non-primitive cell volume =           121.467774 Angs**3


  Final internal derivatives :

--------------------------------------------------------------------------------
   No.  Atomic          a             b             c           Radius
        Label          (eV)          (eV)          (eV)        (eV/Angs)
--------------------------------------------------------------------------------
      1 Ti    c       0.000000      0.000000      0.000000      0.000000
      2 Ti    c      -0.000433     -0.000000      0.000277      0.000000
      3 Ti    c      -0.000851      0.000000      0.001120      0.000000
      4 Ti    c      -0.001307     -0.000000     -0.000113      0.000000
      5 O     c      -0.000478     -0.000684     -0.000406      0.000000
      6 O     c      -0.000478      0.000684     -0.000406      0.000000
      7 O     c      -0.000268      0.001799     -0.000173      0.000000
      8 O     c      -0.000268     -0.001799     -0.000173      0.000000
      9 O     c      -0.000597     -0.000000     -0.000315      0.000000
     10 O     c       0.001182      0.000000      0.000296      0.000000
     11 O     c       0.003359     -0.000000      0.002284      0.000000
     12 O     c       0.001804     -0.000000     -0.000380      0.000000
--------------------------------------------------------------------------------
  Maximum abs         0.003359      0.001799      0.002284      0.000000
--------------------------------------------------------------------------------


  Time to end of optimisation =       0.9579 seconds


  Peak dynamic memory used =       1.84 MB 


  Timing analysis for GULP :

--------------------------------------------------------------------------------
  Task / Subroutine                                          Time (Seconds)
--------------------------------------------------------------------------------
  Calculation of reciprocal space energy and derivatives          0.0497
  Calculation of real space energy and derivatives                0.8914
  Calculation and manipulation of Hessian matrix                  0.0002
  Calculation of matrix inversion                                 0.0004
  Global summation overhead                                       0.0003
--------------------------------------------------------------------------------
  Total CPU time                                                  0.9580
--------------------------------------------------------------------------------


  Job Finished at 11:03.52 29th May        2024                               

