********************************************************************************
*                       GENERAL UTILITY LATTICE PROGRAM                        *
*                                 Julian Gale                                  *
*                       Curtin Institute for Computation                       *
*                    School of Molecular and Life Sciences                     *
*                    Curtin University, Western Australia                      *
********************************************************************************
* Version = 6.0.0 * Last modified =  12th July 2021                            *
********************************************************************************
*  optimise     - perform optimisation run                                     *
*  conp         - constant pressure calculation                                *
*  conjugate    - use conjugate gradients minimiser                            *
********************************************************************************

  Job Started  at 11:03.52 29th May        2024                               

  Number of CPUs =     1


  Total number of configurations input =      1

********************************************************************************
*  Input for Configuration =   1                                               *
********************************************************************************

  Formula = Ti4O8                                                       

  Number of irreducible atoms/shells =      12


  Total number atoms/shells =      12

  Dimensionality = 3               :  Bulk   



  Cartesian lattice vectors (Angstroms) :

        5.819065    0.000000    0.351304
        0.000000    3.852882    0.000000
        0.000000    0.000000    6.255465

  Cell parameters (Angstroms/Degrees):

  a =       5.8297    alpha =  90.0000
  b =       3.8529    beta  =  86.5452
  c =       6.2555    gamma =  90.0000

  Initial cell volume =         140.248604 Angs**3

  Temperature of configuration =   0.00     K 

  Pressure of configuration =         0.000 GPa 

  Fractional coordinates of asymmetric unit :

--------------------------------------------------------------------------------
   No.  Atomic       x           y          z         Charge      Occupancy
        Label      (Frac)      (Frac)     (Frac)        (e)         (Frac)  
--------------------------------------------------------------------------------
      1 Ti    c    0.251402    0.581286    0.240425     2.19600    1.000000    
      2 Ti    c    0.251402 *  0.418714 *  0.740425 *   2.19600    1.000000    
      3 Ti    c    0.751402 *  0.081286 *  0.240425 *   2.19600    1.000000    
      4 Ti    c    0.751402 *  0.918714 *  0.740425 *   2.19600    1.000000    
      5 O     c    0.858994 *  0.502988 *  0.073795 *  -1.09800    1.000000    
      6 O     c    0.858994 *  0.497012 *  0.573795 *  -1.09800    1.000000    
      7 O     c    0.358994 *  0.002988 *  0.073795 *  -1.09800    1.000000    
      8 O     c    0.358994 *  0.997012 *  0.573795 *  -1.09800    1.000000    
      9 O     c    0.666988 *  0.380614 *  0.437467 *  -1.09800    1.000000    
     10 O     c    0.666988 *  0.619386 *  0.937467 *  -1.09800    1.000000    
     11 O     c    0.166988 *  0.880614 *  0.437467 *  -1.09800    1.000000    
     12 O     c    0.166988 *  0.119386 *  0.937467 *  -1.09800    1.000000    
--------------------------------------------------------------------------------



********************************************************************************
*  General input information                                                   *
********************************************************************************

  Species output for all configurations : 

--------------------------------------------------------------------------------
  Species    Type    Atomic    Atomic    Charge       Radii (Angs)     Library
                     Number     Mass       (e)     Cova   Ionic  VDW   Symbol
--------------------------------------------------------------------------------
    Ti       Core       22      47.88   2.196000   1.470  0.000  2.190          
    O        Core        8      16.00  -1.098000   0.730  0.000  1.360          
--------------------------------------------------------------------------------


  Lattice summation method               =    Ewald          (3-D)
                                         =    Parry          (2-D)
                                         =    Saunders et al (1-D)
  Accuracy factor for lattice sums       =   12.000


  Analytic derivatives to be used

  Time limit = Infinity

  Maximum range for interatomic potentials =    100000.000000 Angstroms

  General interatomic potentials :

--------------------------------------------------------------------------------
Atom  Types   Potential      Parameter       Value         Units   Cutoffs(Ang)
  1     2                                                            Min /  Max 
--------------------------------------------------------------------------------
Ti   c Ti   c Buckingham    Buckingham A     31120.100    eV        0.000 15.000
                            Buckingham rho  0.15400000    Ang       
                            Buckingham C     5.2500000    eV*Ang^6  
--------------------------------------------------------------------------------
O    c O    c Buckingham    Buckingham A     11782.700    eV        0.000 15.000
                            Buckingham rho  0.23400000    Ang       
                            Buckingham C     30.220000    eV*Ang^6  
--------------------------------------------------------------------------------
O    c Ti   c Buckingham    Buckingham A     16957.500    eV        0.000 15.000
                            Buckingham rho  0.19400000    Ang       
                            Buckingham C     12.590000    eV*Ang^6  
--------------------------------------------------------------------------------
Ti   c Ti   c Lennard       Lennard-Jones A  1.0000000    eV*Ang^m  0.000 15.000
                            Lennard-Jones B  0.0000000    eV*Ang^n  
                            Exponent m        12          None
                            Exponent n         6          None
--------------------------------------------------------------------------------
O    c O    c Lennard       Lennard-Jones A  1.0000000    eV*Ang^m  0.000 15.000
                            Lennard-Jones B  0.0000000    eV*Ang^n  
                            Exponent m        12          None
                            Exponent n         6          None
--------------------------------------------------------------------------------
O    c Ti   c Lennard       Lennard-Jones A  1.0000000    eV*Ang^m  0.000 15.000
                            Lennard-Jones B  0.0000000    eV*Ang^n  
                            Exponent m        12          None
                            Exponent n         6          None
--------------------------------------------------------------------------------

********************************************************************************
*  Output for configuration   1                                                *
********************************************************************************


  Components of energy : 

--------------------------------------------------------------------------------
  Interatomic potentials     =          70.41788404 eV    
  Monopole - monopole (real) =         -41.87801619 eV    
  Monopole - monopole (recip)=         -97.82724113 eV    
  Monopole - monopole (total)=        -139.70525732 eV    
--------------------------------------------------------------------------------
  Total lattice energy       =         -69.28737327 eV    
--------------------------------------------------------------------------------
  Total lattice energy       =           -6685.1724 kJ/(mole unit cells)
--------------------------------------------------------------------------------


  Number of variables =       39

  Maximum number of calculations  =          1000
  Maximum Hessian update interval =            10
  Maximum step size               =   1.000000000
  Maximum parameter tolerance     =   0.000010000
  Maximum function  tolerance     =   0.000010000
  Maximum gradient  tolerance     =   0.001000000
  Maximum gradient  component     =   0.010000000

  Symmetry not applied to optimisation

  Cell parameters to be optimised using strains

  Conjugate gradient optimiser to be used

  Lower half triangular hessian to be used

  Minimiser to switch to BFGS with exact hessian
  When gradient norm is less than     0.500000

  Start of bulk optimisation :

  Cycle:      0 Energy:       -69.287373  Gnorm:     32.452456  CPU:    0.020
  Cycle:      1 Energy:      -139.794955  Gnorm:      2.439632  CPU:    0.064
  Cycle:      2 Energy:      -144.123412  Gnorm:      1.556010  CPU:    0.090
  Cycle:      3 Energy:      -148.489202  Gnorm:      1.055943  CPU:    0.117
  Cycle:      4 Energy:      -150.794061  Gnorm:      1.152741  CPU:    0.146
  Cycle:      5 Energy:      -151.209391  Gnorm:      0.691689  CPU:    0.176
  Cycle:      6 Energy:      -151.768941  Gnorm:      0.738648  CPU:    0.206
  Cycle:      7 Energy:      -152.209664  Gnorm:      0.630410  CPU:    0.231
  Cycle:      8 Energy:      -153.098518  Gnorm:      0.777565  CPU:    0.261
  Cycle:      9 Energy:      -153.627031  Gnorm:      0.527439  CPU:    0.285
  Cycle:     10 Energy:      -153.933526  Gnorm:      0.564733  CPU:    0.316
  Cycle:     11 Energy:      -154.137981  Gnorm:      0.473565  CPU:    0.340
  ** Hessian calculated **
  Cycle:     12 Energy:      -154.592861  Gnorm:      0.304069  CPU:    0.414
  Cycle:     13 Energy:      -154.648065  Gnorm:      0.171915  CPU:    0.444
  ** Hessian calculated **
  Cycle:     14 Energy:      -154.778616  Gnorm:      0.122578  CPU:    0.512
  Cycle:     15 Energy:      -154.778873  Gnorm:      0.107104  CPU:    0.541
  ** Hessian calculated **
  Cycle:     16 Energy:      -154.790609  Gnorm:      0.080853  CPU:    0.601
  Cycle:     17 Energy:      -154.802344  Gnorm:      0.085423  CPU:    0.631
  Cycle:     18 Energy:      -154.842876  Gnorm:      0.225155  CPU:    0.665
  Cycle:     19 Energy:      -154.941641  Gnorm:      0.479838  CPU:    0.700
  Cycle:     20 Energy:      -154.965703  Gnorm:      0.617642  CPU:    0.725
  ** Hessian calculated **
  Cycle:     21 Energy:      -155.244216  Gnorm:      0.249895  CPU:    0.787
  Cycle:     22 Energy:      -155.404312  Gnorm:      0.414147  CPU:    0.817
  Cycle:     23 Energy:      -155.617403  Gnorm:      0.307066  CPU:    0.848
  Cycle:     24 Energy:      -156.035610  Gnorm:      0.506028  CPU:    0.881
  Cycle:     25 Energy:      -156.351235  Gnorm:      0.353428  CPU:    0.909
  Cycle:     26 Energy:      -156.651952  Gnorm:      0.308696  CPU:    0.943
  Cycle:     27 Energy:      -156.738656  Gnorm:      0.287915  CPU:    0.971
  Cycle:     28 Energy:      -156.803895  Gnorm:      0.247378  CPU:    0.999
  Cycle:     29 Energy:      -156.824209  Gnorm:      0.214324  CPU:    1.027
  Cycle:     30 Energy:      -156.866941  Gnorm:      0.102147  CPU:    1.055
  ** Hessian calculated **
  Cycle:     31 Energy:      -156.884725  Gnorm:      0.006134  CPU:    1.134
  Cycle:     32 Energy:      -156.884777  Gnorm:      0.000898  CPU:    1.162
  Cycle:     33 Energy:      -156.884787  Gnorm:      0.000575  CPU:    1.190


  **** Optimisation achieved ****


  Final energy =    -156.88478768 eV      
  Final Gnorm  =       0.00007542

  Components of energy : 

--------------------------------------------------------------------------------
  Interatomic potentials     =          11.24553821 eV    
  Monopole - monopole (real) =         -61.74234839 eV    
  Monopole - monopole (recip)=        -106.38797750 eV    
  Monopole - monopole (total)=        -168.13032589 eV    
--------------------------------------------------------------------------------
  Total lattice energy       =        -156.88478768 eV    
--------------------------------------------------------------------------------
  Total lattice energy       =          -15136.9838 kJ/(mole unit cells)
--------------------------------------------------------------------------------

  Final fractional coordinates of atoms :

--------------------------------------------------------------------------------
   No.  Atomic        x           y          z          Radius
        Label       (Frac)      (Frac)     (Frac)       (Angs) 
--------------------------------------------------------------------------------
     1  Ti    c     0.251402    0.581286    0.240425    0.000000
     2  Ti    c     0.251403    0.581280    0.740423    0.000000
     3  Ti    c     0.751404    0.081283    0.240424    0.000000
     4  Ti    c     0.751403    0.081284    0.740427    0.000000
     5  O     c     0.001403    0.581285    0.115422    0.000000
     6  O     c     0.001404    0.581287    0.615422    0.000000
     7  O     c     0.501405    0.081283    0.115426    0.000000
     8  O     c     0.501403    0.081282    0.615427    0.000000
     9  O     c     0.501403    0.581283    0.365427    0.000000
    10  O     c     0.501404    0.581283    0.865427    0.000000
    11  O     c     0.001403    0.081285    0.365423    0.000000
    12  O     c     0.001404    0.081289    0.865422    0.000000
--------------------------------------------------------------------------------

  Final Cartesian lattice vectors (Angstroms) :

        5.656765   -0.000311    1.627849
        0.000031    3.398474    0.000466
        2.236416   -0.000902    6.418480


  Final cell parameters and derivatives :

--------------------------------------------------------------------------------
       a            5.886330 Angstrom     dE/de1(xx)    -0.000489 eV/strain
       b            3.398474 Angstrom     dE/de2(yy)    -0.000948 eV/strain
       c            6.796944 Angstrom     dE/de3(zz)    -0.000913 eV/strain
       alpha       90.000021 Degrees      dE/de4(yz)     0.000013 eV/strain
       beta        54.735686 Degrees      dE/de5(xz)    -0.000211 eV/strain
       gamma       90.000346 Degrees      dE/de6(xy)    -0.000279 eV/strain
--------------------------------------------------------------------------------

  Primitive cell volume =           111.018923 Angs**3

  Density of cell =      4.779220 g/cm**3

  Non-primitive cell volume =           111.018923 Angs**3


  Final internal derivatives :

--------------------------------------------------------------------------------
   No.  Atomic          a             b             c           Radius
        Label          (eV)          (eV)          (eV)        (eV/Angs)
--------------------------------------------------------------------------------
      1 Ti    c       0.000000      0.000000      0.000000      0.000000
      2 Ti    c      -0.000884     -0.000494     -0.000874      0.000000
      3 Ti    c       0.000299     -0.000065     -0.000185      0.000000
      4 Ti    c       0.000784     -0.000071      0.001371      0.000000
      5 O     c      -0.000387     -0.000307     -0.000270      0.000000
      6 O     c       0.000111      0.000053     -0.000392      0.000000
      7 O     c       0.000452     -0.000001     -0.000005      0.000000
      8 O     c      -0.000193      0.000068      0.000252      0.000000
      9 O     c      -0.000376      0.000064     -0.000256      0.000000
     10 O     c       0.000571     -0.000006      0.000346      0.000000
     11 O     c       0.000010     -0.000139      0.000347      0.000000
     12 O     c       0.000093      0.000701     -0.000228      0.000000
--------------------------------------------------------------------------------
  Maximum abs         0.000884      0.000701      0.001371      0.000000
--------------------------------------------------------------------------------


  Time to end of optimisation =       1.2186 seconds


  Peak dynamic memory used =       1.84 MB 


  Timing analysis for GULP :

--------------------------------------------------------------------------------
  Task / Subroutine                                          Time (Seconds)
--------------------------------------------------------------------------------
  Calculation of reciprocal space energy and derivatives          0.0500
  Calculation of real space energy and derivatives                1.1514
  Calculation and manipulation of Hessian matrix                  0.0005
  Calculation of matrix inversion                                 0.0010
  Global summation overhead                                       0.0002
--------------------------------------------------------------------------------
  Total CPU time                                                  1.2187
--------------------------------------------------------------------------------


  Job Finished at 11:03.53 29th May        2024                               

