********************************************************************************
*                       GENERAL UTILITY LATTICE PROGRAM                        *
*                                 Julian Gale                                  *
*                       Curtin Institute for Computation                       *
*                    School of Molecular and Life Sciences                     *
*                    Curtin University, Western Australia                      *
********************************************************************************
* Version = 6.0.0 * Last modified =  12th July 2021                            *
********************************************************************************
*  optimise     - perform optimisation run                                     *
*  conp         - constant pressure calculation                                *
*  conjugate    - use conjugate gradients minimiser                            *
********************************************************************************

  Job Started  at 11:03.38 29th May        2024                               

  Number of CPUs =     1


  Total number of configurations input =      1

********************************************************************************
*  Input for Configuration =   1                                               *
********************************************************************************

  Formula = Ti4O8                                                       

  Number of irreducible atoms/shells =      12


  Total number atoms/shells =      12

  Dimensionality = 3               :  Bulk   



  Cartesian lattice vectors (Angstroms) :

        7.320913   -1.218500    1.152995
        0.000000    5.993247   -3.342909
        0.000000    0.000000    3.783367

  Cell parameters (Angstroms/Degrees):

  a =       7.5107    alpha = 119.1519
  b =       6.8625    beta  =  81.1693
  c =       3.7834    gamma = 102.5016

  Initial cell volume =         165.999170 Angs**3

  Temperature of configuration =   0.00     K 

  Pressure of configuration =         0.000 GPa 

  Fractional coordinates of asymmetric unit :

--------------------------------------------------------------------------------
   No.  Atomic       x           y          z         Charge      Occupancy
        Label      (Frac)      (Frac)     (Frac)        (e)         (Frac)  
--------------------------------------------------------------------------------
      1 Ti    c    0.500000    0.500000    0.000000     2.19600    1.000000    
      2 Ti    c    0.167556 *  0.708411 *  0.585733 *   2.19600    1.000000    
      3 Ti    c    0.832444 *  0.291589 *  0.414267 *   2.19600    1.000000    
      4 Ti    c    0.500000 *  0.000000 *  0.000000 *   2.19600    1.000000    
      5 O     c    0.756143 *  0.760474 *  0.330975 *  -1.09800    1.000000    
      6 O     c    0.243857 *  0.239526 *  0.669025 *  -1.09800    1.000000    
      7 O     c    0.500000 *  0.500000 *  0.500000 *  -1.09800    1.000000    
      8 O     c    0.000000 *  0.500000 *  0.000000 *  -1.09800    1.000000    
      9 O     c    0.502220 *  0.737749 *  0.995145 *  -1.09800    1.000000    
     10 O     c    0.497780 *  0.262251 *  0.004855 *  -1.09800    1.000000    
     11 O     c    0.052753 *  0.890156 *  0.712305 *  -1.09800    1.000000    
     12 O     c    0.947247 *  0.109844 *  0.287695 *  -1.09800    1.000000    
--------------------------------------------------------------------------------



********************************************************************************
*  General input information                                                   *
********************************************************************************

  Species output for all configurations : 

--------------------------------------------------------------------------------
  Species    Type    Atomic    Atomic    Charge       Radii (Angs)     Library
                     Number     Mass       (e)     Cova   Ionic  VDW   Symbol
--------------------------------------------------------------------------------
    Ti       Core       22      47.88   2.196000   1.470  0.000  2.190          
    O        Core        8      16.00  -1.098000   0.730  0.000  1.360          
--------------------------------------------------------------------------------


  Lattice summation method               =    Ewald          (3-D)
                                         =    Parry          (2-D)
                                         =    Saunders et al (1-D)
  Accuracy factor for lattice sums       =   12.000


  Analytic derivatives to be used

  Time limit = Infinity

  Maximum range for interatomic potentials =    100000.000000 Angstroms

  General interatomic potentials :

--------------------------------------------------------------------------------
Atom  Types   Potential      Parameter       Value         Units   Cutoffs(Ang)
  1     2                                                            Min /  Max 
--------------------------------------------------------------------------------
Ti   c Ti   c Buckingham    Buckingham A     31120.100    eV        0.000 15.000
                            Buckingham rho  0.15400000    Ang       
                            Buckingham C     5.2500000    eV*Ang^6  
--------------------------------------------------------------------------------
O    c O    c Buckingham    Buckingham A     11782.700    eV        0.000 15.000
                            Buckingham rho  0.23400000    Ang       
                            Buckingham C     30.220000    eV*Ang^6  
--------------------------------------------------------------------------------
O    c Ti   c Buckingham    Buckingham A     16957.500    eV        0.000 15.000
                            Buckingham rho  0.19400000    Ang       
                            Buckingham C     12.590000    eV*Ang^6  
--------------------------------------------------------------------------------
Ti   c Ti   c Lennard       Lennard-Jones A  1.0000000    eV*Ang^m  0.000 15.000
                            Lennard-Jones B  0.0000000    eV*Ang^n  
                            Exponent m        12          None
                            Exponent n         6          None
--------------------------------------------------------------------------------
O    c O    c Lennard       Lennard-Jones A  1.0000000    eV*Ang^m  0.000 15.000
                            Lennard-Jones B  0.0000000    eV*Ang^n  
                            Exponent m        12          None
                            Exponent n         6          None
--------------------------------------------------------------------------------
O    c Ti   c Lennard       Lennard-Jones A  1.0000000    eV*Ang^m  0.000 15.000
                            Lennard-Jones B  0.0000000    eV*Ang^n  
                            Exponent m        12          None
                            Exponent n         6          None
--------------------------------------------------------------------------------

********************************************************************************
*  Output for configuration   1                                                *
********************************************************************************


  Components of energy : 

--------------------------------------------------------------------------------
  Interatomic potentials     =          32.63498034 eV    
  Monopole - monopole (real) =         -49.81449960 eV    
  Monopole - monopole (recip)=         -87.09682695 eV    
  Monopole - monopole (total)=        -136.91132655 eV    
--------------------------------------------------------------------------------
  Total lattice energy       =        -104.27634622 eV    
--------------------------------------------------------------------------------
  Total lattice energy       =          -10061.0734 kJ/(mole unit cells)
--------------------------------------------------------------------------------


  Number of variables =       39

  Maximum number of calculations  =          1000
  Maximum Hessian update interval =            10
  Maximum step size               =   1.000000000
  Maximum parameter tolerance     =   0.000010000
  Maximum function  tolerance     =   0.000010000
  Maximum gradient  tolerance     =   0.001000000
  Maximum gradient  component     =   0.010000000

  Symmetry not applied to optimisation

  Cell parameters to be optimised using strains

  Conjugate gradient optimiser to be used

  Lower half triangular hessian to be used

  Minimiser to switch to BFGS with exact hessian
  When gradient norm is less than     0.500000

  Start of bulk optimisation :

  Cycle:      0 Energy:      -104.276346  Gnorm:      8.391891  CPU:    0.053
  Cycle:      1 Energy:      -112.252261  Gnorm:      4.437103  CPU:    0.106
  Cycle:      2 Energy:      -121.517113  Gnorm:      5.275697  CPU:    0.149
  Cycle:      3 Energy:      -128.190901  Gnorm:      1.866309  CPU:    0.182
  Cycle:      4 Energy:      -129.901961  Gnorm:      2.731435  CPU:    0.221
  Cycle:      5 Energy:      -133.490523  Gnorm:      1.532031  CPU:    0.263
  Cycle:      6 Energy:      -135.133164  Gnorm:      1.869663  CPU:    0.296
  Cycle:      7 Energy:      -137.266576  Gnorm:      1.029606  CPU:    0.328
  Cycle:      8 Energy:      -138.065720  Gnorm:      1.107636  CPU:    0.360
  Cycle:      9 Energy:      -138.868610  Gnorm:      1.322713  CPU:    0.393
  Cycle:     10 Energy:      -139.330079  Gnorm:      0.838428  CPU:    0.419
  Cycle:     11 Energy:      -140.020433  Gnorm:      0.986176  CPU:    0.451
  Cycle:     12 Energy:      -140.960780  Gnorm:      1.406632  CPU:    0.475
  Cycle:     13 Energy:      -142.997739  Gnorm:      1.398780  CPU:    0.499
  Cycle:     14 Energy:      -143.957678  Gnorm:      1.063418  CPU:    0.520
  Cycle:     15 Energy:      -145.491418  Gnorm:      0.555353  CPU:    0.543
  Cycle:     16 Energy:      -145.694581  Gnorm:      0.345874  CPU:    0.563
  ** Hessian calculated **
  Cycle:     17 Energy:      -146.204623  Gnorm:      0.612747  CPU:    0.622
  Cycle:     18 Energy:      -146.542492  Gnorm:      0.738142  CPU:    0.642
  Cycle:     19 Energy:      -147.177034  Gnorm:      0.685553  CPU:    0.669
  Cycle:     20 Energy:      -147.865416  Gnorm:      1.056361  CPU:    0.701
  ** Hessian calculated **
  Cycle:     21 Energy:      -149.213616  Gnorm:      1.438620  CPU:    0.760
  Cycle:     22 Energy:      -150.839349  Gnorm:      1.248641  CPU:    0.799
  Cycle:     23 Energy:      -151.755536  Gnorm:      1.059158  CPU:    0.826
  Cycle:     24 Energy:      -152.419698  Gnorm:      0.720471  CPU:    0.853
  Cycle:     25 Energy:      -152.850486  Gnorm:      0.432281  CPU:    0.885
  Cycle:     26 Energy:      -153.207062  Gnorm:      0.323702  CPU:    0.918
  Cycle:     27 Energy:      -153.313634  Gnorm:      0.201403  CPU:    0.952
  Cycle:     28 Energy:      -153.365173  Gnorm:      0.108299  CPU:    0.979
  Cycle:     29 Energy:      -153.382603  Gnorm:      0.076699  CPU:    1.007
  Cycle:     30 Energy:      -153.390705  Gnorm:      0.094773  CPU:    1.035
  ** Hessian calculated **
  Cycle:     31 Energy:      -153.395954  Gnorm:      0.062440  CPU:    1.099
  Cycle:     32 Energy:      -153.401355  Gnorm:      0.085772  CPU:    1.133
  Cycle:     33 Energy:      -153.414948  Gnorm:      0.126810  CPU:    1.176
  Cycle:     34 Energy:      -153.465859  Gnorm:      0.111395  CPU:    1.220
  Cycle:     35 Energy:      -153.540954  Gnorm:      0.215268  CPU:    1.261
  Cycle:     36 Energy:      -153.598745  Gnorm:      0.300993  CPU:    1.292
  Cycle:     37 Energy:      -153.890770  Gnorm:      0.474881  CPU:    1.350
  Cycle:     38 Energy:      -154.235048  Gnorm:      0.640943  CPU:    1.402
  Cycle:     39 Energy:      -154.519116  Gnorm:      0.637798  CPU:    1.447
  Cycle:     40 Energy:      -155.159048  Gnorm:      0.433033  CPU:    1.499
  ** Hessian calculated **
  Cycle:     41 Energy:      -155.897330  Gnorm:      0.352181  CPU:    1.581
  Cycle:     42 Energy:      -155.962615  Gnorm:      0.197135  CPU:    1.620
  Cycle:     43 Energy:      -155.975039  Gnorm:      0.124355  CPU:    1.651
  Cycle:     44 Energy:      -155.989417  Gnorm:      0.037118  CPU:    1.683
  Cycle:     45 Energy:      -155.995683  Gnorm:      0.018042  CPU:    1.723
  Cycle:     46 Energy:      -155.996279  Gnorm:      0.006002  CPU:    1.764
  Cycle:     47 Energy:      -155.996328  Gnorm:      0.003490  CPU:    1.803
  Cycle:     48 Energy:      -155.996336  Gnorm:      0.001540  CPU:    1.836
  Cycle:     49 Energy:      -155.996373  Gnorm:      0.009592  CPU:    1.890
  Cycle:     50 Energy:      -155.996488  Gnorm:      0.023817  CPU:    1.944
  ** Hessian calculated **
  Cycle:     51 Energy:      -155.996753  Gnorm:      0.010423  CPU:    2.016
  Cycle:     52 Energy:      -155.996882  Gnorm:      0.007014  CPU:    2.055
  Cycle:     53 Energy:      -155.996933  Gnorm:      0.007092  CPU:    2.087
  Cycle:     54 Energy:      -155.997006  Gnorm:      0.007467  CPU:    2.128
  Cycle:     55 Energy:      -155.997211  Gnorm:      0.019596  CPU:    2.175
  Cycle:     56 Energy:      -155.998393  Gnorm:      0.039332  CPU:    2.237
  ** Hessian calculated **
  Cycle:     57 Energy:      -155.999923  Gnorm:      0.035474  CPU:    2.316
  Cycle:     58 Energy:      -156.004925  Gnorm:      0.067364  CPU:    2.364
  Cycle:     59 Energy:      -156.018003  Gnorm:      0.115676  CPU:    2.419
  Cycle:     60 Energy:      -156.023226  Gnorm:      0.142414  CPU:    2.450
  Cycle:     61 Energy:      -156.040216  Gnorm:      0.157960  CPU:    2.491
  Cycle:     62 Energy:      -156.079932  Gnorm:      0.140895  CPU:    2.523
  Cycle:     63 Energy:      -156.100499  Gnorm:      0.121835  CPU:    2.562
  Cycle:     64 Energy:      -156.115841  Gnorm:      0.123162  CPU:    2.596
  Cycle:     65 Energy:      -156.130209  Gnorm:      0.100393  CPU:    2.635
  Cycle:     66 Energy:      -156.138950  Gnorm:      0.078269  CPU:    2.666
  ** Hessian calculated **
  Cycle:     67 Energy:      -156.143023  Gnorm:      0.061137  CPU:    2.738
  Cycle:     68 Energy:      -156.146824  Gnorm:      0.058456  CPU:    2.777
  Cycle:     69 Energy:      -156.152607  Gnorm:      0.066285  CPU:    2.816
  Cycle:     70 Energy:      -156.161735  Gnorm:      0.094973  CPU:    2.855
  Cycle:     71 Energy:      -156.173674  Gnorm:      0.106686  CPU:    2.894
  Cycle:     72 Energy:      -156.190966  Gnorm:      0.087038  CPU:    2.933
  Cycle:     73 Energy:      -156.198553  Gnorm:      0.073388  CPU:    2.964
  Cycle:     74 Energy:      -156.205648  Gnorm:      0.049355  CPU:    3.003
  Cycle:     75 Energy:      -156.208867  Gnorm:      0.036215  CPU:    3.035
  Cycle:     76 Energy:      -156.210723  Gnorm:      0.024915  CPU:    3.066
  ** Hessian calculated **
  Cycle:     77 Energy:      -156.215481  Gnorm:      0.005948  CPU:    3.151
  Cycle:     78 Energy:      -156.215818  Gnorm:      0.000668  CPU:    3.183


  **** Optimisation achieved ****


  Final energy =    -156.21581939 eV      
  Final Gnorm  =       0.00006900

  Components of energy : 

--------------------------------------------------------------------------------
  Interatomic potentials     =          12.72240989 eV    
  Monopole - monopole (real) =         -69.30646381 eV    
  Monopole - monopole (recip)=         -99.63176547 eV    
  Monopole - monopole (total)=        -168.93822928 eV    
--------------------------------------------------------------------------------
  Total lattice energy       =        -156.21581939 eV    
--------------------------------------------------------------------------------
  Total lattice energy       =          -15072.4386 kJ/(mole unit cells)
--------------------------------------------------------------------------------

  Final fractional coordinates of atoms :

--------------------------------------------------------------------------------
   No.  Atomic        x           y          z          Radius
        Label       (Frac)      (Frac)     (Frac)       (Angs) 
--------------------------------------------------------------------------------
     1  Ti    c     0.500000    0.500000    0.000000    0.000000
     2  Ti    c     0.093947    0.733039    0.123187    0.000000
     3  Ti    c     0.921091    0.243550    0.819717    0.000000
     4  Ti    c     0.525670    0.941411    0.832970    0.000000
     5  O     c     0.555327    0.796164    0.190367    0.000000
     6  O     c     0.433375    0.229269    0.914782    0.000000
     7  O     c     0.466542    0.549414    0.578347    0.000000
     8  O     c     0.936942    0.533527    0.072039    0.000000
     9  O     c     0.171919    0.689525    0.504203    0.000000
    10  O     c     0.816836    0.298756    0.474387    0.000000
    11  O     c     0.202680    0.994649    0.258970    0.000000
    12  O     c     0.806918    0.989773    0.687403    0.000000
--------------------------------------------------------------------------------

  Final Cartesian lattice vectors (Angstroms) :

        6.727220    0.978501    2.800517
        0.760476    6.148112   -3.212813
        0.585795   -0.067512    3.632979


  Final cell parameters and derivatives :

--------------------------------------------------------------------------------
       a            7.352268 Angstrom     dE/de1(xx)     0.000253 eV/strain
       b            6.978523 Angstrom     dE/de2(yy)     0.000542 eV/strain
       c            3.680523 Angstrom     dE/de3(zz)    -0.000297 eV/strain
       alpha      116.952696 Degrees      dE/de4(yz)    -0.000117 eV/strain
       beta        58.723188 Degrees      dE/de5(xz)     0.000046 eV/strain
       gamma       87.615945 Degrees      dE/de6(xy)    -0.000166 eV/strain
--------------------------------------------------------------------------------

  Primitive cell volume =           134.024850 Angs**3

  Density of cell =      3.958847 g/cm**3

  Non-primitive cell volume =           134.024850 Angs**3


  Final internal derivatives :

--------------------------------------------------------------------------------
   No.  Atomic          a             b             c           Radius
        Label          (eV)          (eV)          (eV)        (eV/Angs)
--------------------------------------------------------------------------------
      1 Ti    c       0.000000      0.000000      0.000000      0.000000
      2 Ti    c      -0.000016      0.000325      0.000193      0.000000
      3 Ti    c      -0.000155     -0.000239      0.000049      0.000000
      4 Ti    c      -0.001670      0.000320     -0.000080      0.000000
      5 O     c       0.000477     -0.000316     -0.000162      0.000000
      6 O     c       0.000803      0.000109      0.000199      0.000000
      7 O     c       0.000207      0.000057     -0.000084      0.000000
      8 O     c       0.000329     -0.000250      0.000006      0.000000
      9 O     c       0.000095      0.000708     -0.000060      0.000000
     10 O     c      -0.000525     -0.000408      0.000218      0.000000
     11 O     c       0.000477     -0.000013      0.000003      0.000000
     12 O     c       0.001034     -0.000167      0.000158      0.000000
--------------------------------------------------------------------------------
  Maximum abs         0.001670      0.000708      0.000218      0.000000
--------------------------------------------------------------------------------


  Time to end of optimisation =       3.2151 seconds


  Peak dynamic memory used =       1.84 MB 


  Timing analysis for GULP :

--------------------------------------------------------------------------------
  Task / Subroutine                                          Time (Seconds)
--------------------------------------------------------------------------------
  Calculation of reciprocal space energy and derivatives          0.1083
  Calculation of real space energy and derivatives                3.0675
  Calculation and manipulation of Hessian matrix                  0.0009
  Calculation of matrix inversion                                 0.0015
  Global summation overhead                                       0.0005
--------------------------------------------------------------------------------
  Total CPU time                                                  3.2151
--------------------------------------------------------------------------------


  Job Finished at 11:03.41 29th May        2024                               

