********************************************************************************
*                       GENERAL UTILITY LATTICE PROGRAM                        *
*                                 Julian Gale                                  *
*                       Curtin Institute for Computation                       *
*                    School of Molecular and Life Sciences                     *
*                    Curtin University, Western Australia                      *
********************************************************************************
* Version = 6.0.0 * Last modified =  12th July 2021                            *
********************************************************************************
*  optimise     - perform optimisation run                                     *
*  conp         - constant pressure calculation                                *
*  conjugate    - use conjugate gradients minimiser                            *
********************************************************************************

  Job Started  at 11:04.14 29th May        2024                               

  Number of CPUs =     1


  Total number of configurations input =      1

********************************************************************************
*  Input for Configuration =   1                                               *
********************************************************************************

  Formula = Ti4O8                                                       

  Number of irreducible atoms/shells =      12


  Total number atoms/shells =      12

  Dimensionality = 3               :  Bulk   



  Cartesian lattice vectors (Angstroms) :

        5.677940    0.000000    0.000000
        0.000000    5.860975    0.000000
        0.000000    0.000000    5.832458

  Cell parameters (Angstroms/Degrees):

  a =       5.6779    alpha =  90.0000
  b =       5.8610    beta  =  90.0000
  c =       5.8325    gamma =  90.0000

  Initial cell volume =         194.094041 Angs**3

  Temperature of configuration =   0.00     K 

  Pressure of configuration =         0.000 GPa 

  Fractional coordinates of asymmetric unit :

--------------------------------------------------------------------------------
   No.  Atomic       x           y          z         Charge      Occupancy
        Label      (Frac)      (Frac)     (Frac)        (e)         (Frac)  
--------------------------------------------------------------------------------
      1 Ti    c    0.000000    0.500000    0.620997     2.19600    1.000000    
      2 Ti    c    0.500000 *  0.500000 *  0.620997 *   2.19600    1.000000    
      3 Ti    c    0.250000 *  0.187122 *  0.694413 *   2.19600    1.000000    
      4 Ti    c    0.750000 *  0.812878 *  0.694413 *   2.19600    1.000000    
      5 O     c    0.954761 *  0.394770 *  0.352168 *  -1.09800    1.000000    
      6 O     c    0.045239 *  0.605230 *  0.352168 *  -1.09800    1.000000    
      7 O     c    0.454761 *  0.605230 *  0.352168 *  -1.09800    1.000000    
      8 O     c    0.545239 *  0.394770 *  0.352168 *  -1.09800    1.000000    
      9 O     c    0.063173 *  0.307939 *  0.644764 *  -1.09800    1.000000    
     10 O     c    0.936827 *  0.692061 *  0.644764 *  -1.09800    1.000000    
     11 O     c    0.563173 *  0.692061 *  0.644764 *  -1.09800    1.000000    
     12 O     c    0.436827 *  0.307939 *  0.644764 *  -1.09800    1.000000    
--------------------------------------------------------------------------------



********************************************************************************
*  General input information                                                   *
********************************************************************************

  Species output for all configurations : 

--------------------------------------------------------------------------------
  Species    Type    Atomic    Atomic    Charge       Radii (Angs)     Library
                     Number     Mass       (e)     Cova   Ionic  VDW   Symbol
--------------------------------------------------------------------------------
    Ti       Core       22      47.88   2.196000   1.470  0.000  2.190          
    O        Core        8      16.00  -1.098000   0.730  0.000  1.360          
--------------------------------------------------------------------------------


  Lattice summation method               =    Ewald          (3-D)
                                         =    Parry          (2-D)
                                         =    Saunders et al (1-D)
  Accuracy factor for lattice sums       =   12.000


  Analytic derivatives to be used

  Time limit = Infinity

  Maximum range for interatomic potentials =    100000.000000 Angstroms

  General interatomic potentials :

--------------------------------------------------------------------------------
Atom  Types   Potential      Parameter       Value         Units   Cutoffs(Ang)
  1     2                                                            Min /  Max 
--------------------------------------------------------------------------------
Ti   c Ti   c Buckingham    Buckingham A     31120.100    eV        0.000 15.000
                            Buckingham rho  0.15400000    Ang       
                            Buckingham C     5.2500000    eV*Ang^6  
--------------------------------------------------------------------------------
O    c O    c Buckingham    Buckingham A     11782.700    eV        0.000 15.000
                            Buckingham rho  0.23400000    Ang       
                            Buckingham C     30.220000    eV*Ang^6  
--------------------------------------------------------------------------------
O    c Ti   c Buckingham    Buckingham A     16957.500    eV        0.000 15.000
                            Buckingham rho  0.19400000    Ang       
                            Buckingham C     12.590000    eV*Ang^6  
--------------------------------------------------------------------------------
Ti   c Ti   c Lennard       Lennard-Jones A  1.0000000    eV*Ang^m  0.000 15.000
                            Lennard-Jones B  0.0000000    eV*Ang^n  
                            Exponent m        12          None
                            Exponent n         6          None
--------------------------------------------------------------------------------
O    c O    c Lennard       Lennard-Jones A  1.0000000    eV*Ang^m  0.000 15.000
                            Lennard-Jones B  0.0000000    eV*Ang^n  
                            Exponent m        12          None
                            Exponent n         6          None
--------------------------------------------------------------------------------
O    c Ti   c Lennard       Lennard-Jones A  1.0000000    eV*Ang^m  0.000 15.000
                            Lennard-Jones B  0.0000000    eV*Ang^n  
                            Exponent m        12          None
                            Exponent n         6          None
--------------------------------------------------------------------------------

********************************************************************************
*  Output for configuration   1                                                *
********************************************************************************


  Components of energy : 

--------------------------------------------------------------------------------
  Interatomic potentials     =         291.49330539 eV    
  Monopole - monopole (real) =         -91.58321448 eV    
  Monopole - monopole (recip)=         -82.24171175 eV    
  Monopole - monopole (total)=        -173.82492623 eV    
--------------------------------------------------------------------------------
  Total lattice energy       =         117.66837916 eV    
--------------------------------------------------------------------------------
  Total lattice energy       =           11353.1999 kJ/(mole unit cells)
--------------------------------------------------------------------------------


  Number of variables =       39

  Maximum number of calculations  =          1000
  Maximum Hessian update interval =            10
  Maximum step size               =   1.000000000
  Maximum parameter tolerance     =   0.000010000
  Maximum function  tolerance     =   0.000010000
  Maximum gradient  tolerance     =   0.001000000
  Maximum gradient  component     =   0.010000000

  Symmetry not applied to optimisation

  Cell parameters to be optimised using strains

  Conjugate gradient optimiser to be used

  Lower half triangular hessian to be used

  Minimiser to switch to BFGS with exact hessian
  When gradient norm is less than     0.500000

  Start of bulk optimisation :

  Cycle:      0 Energy:       117.668379  Gnorm:     68.058542  CPU:    0.018
  Cycle:      1 Energy:       -93.255111  Gnorm:     17.457356  CPU:    0.048
  Cycle:      2 Energy:      -116.120887  Gnorm:      5.438514  CPU:    0.070
  Cycle:      3 Energy:      -130.183531  Gnorm:      1.675563  CPU:    0.090
  Cycle:      4 Energy:      -132.346310  Gnorm:      1.973260  CPU:    0.106
  Cycle:      5 Energy:      -135.821068  Gnorm:      1.449254  CPU:    0.122
  Cycle:      6 Energy:      -137.379804  Gnorm:      0.858122  CPU:    0.136
  Cycle:      7 Energy:      -138.594030  Gnorm:      1.420298  CPU:    0.155
  Cycle:      8 Energy:      -139.770375  Gnorm:      1.493574  CPU:    0.176
  Cycle:      9 Energy:      -140.623064  Gnorm:      0.634165  CPU:    0.197
  Cycle:     10 Energy:      -141.019381  Gnorm:      0.684461  CPU:    0.217
  Cycle:     11 Energy:      -141.909933  Gnorm:      0.806129  CPU:    0.238
  Cycle:     12 Energy:      -144.342853  Gnorm:      1.104297  CPU:    0.260
  Cycle:     13 Energy:      -146.663954  Gnorm:      1.394867  CPU:    0.279
  Cycle:     14 Energy:      -149.800443  Gnorm:      1.193784  CPU:    0.301
  Cycle:     15 Energy:      -150.902283  Gnorm:      0.587783  CPU:    0.320
  Cycle:     16 Energy:      -151.834975  Gnorm:      0.893624  CPU:    0.351
  Cycle:     17 Energy:      -152.836691  Gnorm:      0.731834  CPU:    0.375
  Cycle:     18 Energy:      -153.450943  Gnorm:      0.430326  CPU:    0.398
  ** Hessian calculated **
  Cycle:     19 Energy:      -154.010088  Gnorm:      0.361778  CPU:    0.463
  ** Hessian calculated **
  Cycle:     20 Energy:      -154.201850  Gnorm:      0.297062  CPU:    0.521
  Cycle:     21 Energy:      -154.555824  Gnorm:      0.393028  CPU:    0.547
  Cycle:     22 Energy:      -154.933529  Gnorm:      0.456507  CPU:    0.574
  Cycle:     23 Energy:      -155.324275  Gnorm:      0.404770  CPU:    0.595
  Cycle:     24 Energy:      -155.528524  Gnorm:      0.264536  CPU:    0.617
  Cycle:     25 Energy:      -155.637690  Gnorm:      0.189936  CPU:    0.639
  Cycle:     26 Energy:      -155.685400  Gnorm:      0.095068  CPU:    0.660
  Cycle:     27 Energy:      -155.716823  Gnorm:      0.127865  CPU:    0.686
  Cycle:     28 Energy:      -155.875200  Gnorm:      0.250656  CPU:    0.722
  Cycle:     29 Energy:      -156.074982  Gnorm:      0.484877  CPU:    0.752
  ** Hessian calculated **
  Cycle:     30 Energy:      -156.669298  Gnorm:      0.330231  CPU:    0.831
  Cycle:     31 Energy:      -156.860482  Gnorm:      0.127541  CPU:    0.857
  Cycle:     32 Energy:      -156.867378  Gnorm:      0.079835  CPU:    0.879
  Cycle:     33 Energy:      -156.882803  Gnorm:      0.027889  CPU:    0.902
  Cycle:     34 Energy:      -156.884150  Gnorm:      0.013909  CPU:    0.930
  Cycle:     35 Energy:      -156.884646  Gnorm:      0.007878  CPU:    0.954
  Cycle:     36 Energy:      -156.884650  Gnorm:      0.007432  CPU:    0.977
  ** Hessian calculated **
  Cycle:     37 Energy:      -156.884788  Gnorm:      0.000089  CPU:    1.050


  **** Optimisation achieved ****


  Final energy =    -156.88478769 eV      
  Final Gnorm  =       0.00000203

  Components of energy : 

--------------------------------------------------------------------------------
  Interatomic potentials     =          11.24530079 eV    
  Monopole - monopole (real) =         -61.74226120 eV    
  Monopole - monopole (recip)=        -106.38782728 eV    
  Monopole - monopole (total)=        -168.13008848 eV    
--------------------------------------------------------------------------------
  Total lattice energy       =        -156.88478769 eV    
--------------------------------------------------------------------------------
  Total lattice energy       =          -15136.9838 kJ/(mole unit cells)
--------------------------------------------------------------------------------

  Final fractional coordinates of atoms :

--------------------------------------------------------------------------------
   No.  Atomic        x           y          z          Radius
        Label       (Frac)      (Frac)     (Frac)       (Angs) 
--------------------------------------------------------------------------------
     1  Ti    c     0.000000    0.500000    0.620997    0.000000
     2  Ti    c     0.500000    0.500000    0.620997    0.000000
     3  Ti    c     0.250000    0.000000    0.120997    0.000000
     4  Ti    c     0.750000    1.000000    0.120997    0.000000
     5  O     c     0.750000    0.249999    0.620997    0.000000
     6  O     c     0.250000    0.750001    0.620997    0.000000
     7  O     c     0.500000    0.750000    0.120997    0.000000
     8  O     c     0.500000    0.250000    0.120997    0.000000
     9  O     c     0.000000    0.250000    0.120997    0.000000
    10  O     c     1.000000    0.750000    0.120997    0.000000
    11  O     c     0.750000    0.749999    0.620997    0.000000
    12  O     c     0.250000    0.250001    0.620997    0.000000
--------------------------------------------------------------------------------

  Final Cartesian lattice vectors (Angstroms) :

        6.796731   -0.055708   -0.000008
        0.039392    4.806014   -0.000024
        0.000004    0.000017    3.398479


  Final cell parameters and derivatives :

--------------------------------------------------------------------------------
       a            6.796960 Angstrom     dE/de1(xx)     0.000013 eV/strain
       b            4.806176 Angstrom     dE/de2(yy)     0.000021 eV/strain
       c            3.398479 Angstrom     dE/de3(zz)    -0.000012 eV/strain
       alpha       90.000000 Degrees      dE/de4(yz)    -0.000001 eV/strain
       beta        90.000000 Degrees      dE/de5(xz)    -0.000000 eV/strain
       gamma       90.000000 Degrees      dE/de6(xy)     0.000005 eV/strain
--------------------------------------------------------------------------------

  Primitive cell volume =           111.019394 Angs**3

  Density of cell =      4.779200 g/cm**3

  Non-primitive cell volume =           111.019394 Angs**3


  Final internal derivatives :

--------------------------------------------------------------------------------
   No.  Atomic          a             b             c           Radius
        Label          (eV)          (eV)          (eV)        (eV/Angs)
--------------------------------------------------------------------------------
      1 Ti    c       0.000000      0.000000      0.000000      0.000000
      2 Ti    c      -0.000009      0.000002     -0.000001      0.000000
      3 Ti    c       0.000049     -0.000001      0.000005      0.000000
      4 Ti    c       0.000001      0.000011     -0.000003      0.000000
      5 O     c      -0.000012     -0.000023      0.000001      0.000000
      6 O     c      -0.000009      0.000020     -0.000004      0.000000
      7 O     c       0.000016      0.000003     -0.000001      0.000000
      8 O     c      -0.000006      0.000000      0.000001      0.000000
      9 O     c       0.000014     -0.000004      0.000001      0.000000
     10 O     c      -0.000031     -0.000006     -0.000001      0.000000
     11 O     c       0.000003      0.000004      0.000003      0.000000
     12 O     c      -0.000007     -0.000004     -0.000001      0.000000
--------------------------------------------------------------------------------
  Maximum abs         0.000049      0.000023      0.000005      0.000000
--------------------------------------------------------------------------------


  Time to end of optimisation =       1.0731 seconds


  Peak dynamic memory used =       1.84 MB 


  Timing analysis for GULP :

--------------------------------------------------------------------------------
  Task / Subroutine                                          Time (Seconds)
--------------------------------------------------------------------------------
  Calculation of reciprocal space energy and derivatives          0.0552
  Calculation of real space energy and derivatives                0.9999
  Calculation and manipulation of Hessian matrix                  0.0004
  Calculation of matrix inversion                                 0.0008
  Global summation overhead                                       0.0003
--------------------------------------------------------------------------------
  Total CPU time                                                  1.0732
--------------------------------------------------------------------------------


  Job Finished at 11:04.15 29th May        2024                               

