********************************************************************************
*                       GENERAL UTILITY LATTICE PROGRAM                        *
*                                 Julian Gale                                  *
*                       Curtin Institute for Computation                       *
*                    School of Molecular and Life Sciences                     *
*                    Curtin University, Western Australia                      *
********************************************************************************
* Version = 6.0.0 * Last modified =  12th July 2021                            *
********************************************************************************
*  optimise     - perform optimisation run                                     *
*  conp         - constant pressure calculation                                *
*  conjugate    - use conjugate gradients minimiser                            *
********************************************************************************

  Job Started  at 11:04.06 29th May        2024                               

  Number of CPUs =     1


  Total number of configurations input =      1

********************************************************************************
*  Input for Configuration =   1                                               *
********************************************************************************

  Formula = Ti4O8                                                       

  Number of irreducible atoms/shells =      12


  Total number atoms/shells =      12

  Dimensionality = 3               :  Bulk   



  Cartesian lattice vectors (Angstroms) :

        6.409571    0.000000    0.000000
        0.000000    2.744506    0.000000
        0.000000    0.000000    8.694132

  Cell parameters (Angstroms/Degrees):

  a =       6.4096    alpha =  90.0000
  b =       2.7445    beta  =  90.0000
  c =       8.6941    gamma =  90.0000

  Initial cell volume =         152.939397 Angs**3

  Temperature of configuration =   0.00     K 

  Pressure of configuration =         0.000 GPa 

  Fractional coordinates of asymmetric unit :

--------------------------------------------------------------------------------
   No.  Atomic       x           y          z         Charge      Occupancy
        Label      (Frac)      (Frac)     (Frac)        (e)         (Frac)  
--------------------------------------------------------------------------------
      1 Ti    c    0.000000    0.250000    0.963315     2.19600    1.000000    
      2 Ti    c    0.000000 *  0.750000 *  0.536685 *   2.19600    1.000000    
      3 Ti    c    0.500000 *  0.750000 *  0.463315 *   2.19600    1.000000    
      4 Ti    c    0.500000 *  0.250000 *  0.036685 *   2.19600    1.000000    
      5 O     c    0.000000 *  0.250000 *  0.235983 *  -1.09800    1.000000    
      6 O     c    0.000000 *  0.750000 *  0.264017 *  -1.09800    1.000000    
      7 O     c    0.500000 *  0.750000 *  0.735983 *  -1.09800    1.000000    
      8 O     c    0.500000 *  0.250000 *  0.764017 *  -1.09800    1.000000    
      9 O     c    0.677353 *  0.000000 *  0.250000 *  -1.09800    1.000000    
     10 O     c    0.822647 *  0.000000 *  0.750000 *  -1.09800    1.000000    
     11 O     c    0.177353 *  0.500000 *  0.750000 *  -1.09800    1.000000    
     12 O     c    0.322647 *  0.500000 *  0.250000 *  -1.09800    1.000000    
--------------------------------------------------------------------------------



********************************************************************************
*  General input information                                                   *
********************************************************************************

  Species output for all configurations : 

--------------------------------------------------------------------------------
  Species    Type    Atomic    Atomic    Charge       Radii (Angs)     Library
                     Number     Mass       (e)     Cova   Ionic  VDW   Symbol
--------------------------------------------------------------------------------
    Ti       Core       22      47.88   2.196000   1.470  0.000  2.190          
    O        Core        8      16.00  -1.098000   0.730  0.000  1.360          
--------------------------------------------------------------------------------


  Lattice summation method               =    Ewald          (3-D)
                                         =    Parry          (2-D)
                                         =    Saunders et al (1-D)
  Accuracy factor for lattice sums       =   12.000


  Analytic derivatives to be used

  Time limit = Infinity

  Maximum range for interatomic potentials =    100000.000000 Angstroms

  General interatomic potentials :

--------------------------------------------------------------------------------
Atom  Types   Potential      Parameter       Value         Units   Cutoffs(Ang)
  1     2                                                            Min /  Max 
--------------------------------------------------------------------------------
Ti   c Ti   c Buckingham    Buckingham A     31120.100    eV        0.000 15.000
                            Buckingham rho  0.15400000    Ang       
                            Buckingham C     5.2500000    eV*Ang^6  
--------------------------------------------------------------------------------
O    c O    c Buckingham    Buckingham A     11782.700    eV        0.000 15.000
                            Buckingham rho  0.23400000    Ang       
                            Buckingham C     30.220000    eV*Ang^6  
--------------------------------------------------------------------------------
O    c Ti   c Buckingham    Buckingham A     16957.500    eV        0.000 15.000
                            Buckingham rho  0.19400000    Ang       
                            Buckingham C     12.590000    eV*Ang^6  
--------------------------------------------------------------------------------
Ti   c Ti   c Lennard       Lennard-Jones A  1.0000000    eV*Ang^m  0.000 15.000
                            Lennard-Jones B  0.0000000    eV*Ang^n  
                            Exponent m        12          None
                            Exponent n         6          None
--------------------------------------------------------------------------------
O    c O    c Lennard       Lennard-Jones A  1.0000000    eV*Ang^m  0.000 15.000
                            Lennard-Jones B  0.0000000    eV*Ang^n  
                            Exponent m        12          None
                            Exponent n         6          None
--------------------------------------------------------------------------------
O    c Ti   c Lennard       Lennard-Jones A  1.0000000    eV*Ang^m  0.000 15.000
                            Lennard-Jones B  0.0000000    eV*Ang^n  
                            Exponent m        12          None
                            Exponent n         6          None
--------------------------------------------------------------------------------

********************************************************************************
*  Output for configuration   1                                                *
********************************************************************************


  Components of energy : 

--------------------------------------------------------------------------------
  Interatomic potentials     =         111.41274138 eV    
  Monopole - monopole (real) =           3.50417599 eV    
  Monopole - monopole (recip)=         -85.66392509 eV    
  Monopole - monopole (total)=         -82.15974910 eV    
--------------------------------------------------------------------------------
  Total lattice energy       =          29.25299228 eV    
--------------------------------------------------------------------------------
  Total lattice energy       =            2822.4666 kJ/(mole unit cells)
--------------------------------------------------------------------------------


  Number of variables =       39

  Maximum number of calculations  =          1000
  Maximum Hessian update interval =            10
  Maximum step size               =   1.000000000
  Maximum parameter tolerance     =   0.000010000
  Maximum function  tolerance     =   0.000010000
  Maximum gradient  tolerance     =   0.001000000
  Maximum gradient  component     =   0.010000000

  Symmetry not applied to optimisation

  Cell parameters to be optimised using strains

  Conjugate gradient optimiser to be used

  Lower half triangular hessian to be used

  Minimiser to switch to BFGS with exact hessian
  When gradient norm is less than     0.500000

  Start of bulk optimisation :

  Cycle:      0 Energy:        29.252992  Gnorm:     27.991043  CPU:    0.020
  Cycle:      1 Energy:      -114.126137  Gnorm:      5.695029  CPU:    0.043
  Cycle:      2 Energy:      -120.597271  Gnorm:      5.158006  CPU:    0.059
  Cycle:      3 Energy:      -126.848857  Gnorm:      4.825380  CPU:    0.080
  Cycle:      4 Energy:      -130.247465  Gnorm:      2.863493  CPU:    0.097
  Cycle:      5 Energy:      -130.841707  Gnorm:      3.228720  CPU:    0.113
  Cycle:      6 Energy:      -132.066249  Gnorm:      1.893260  CPU:    0.135
  Cycle:      7 Energy:      -133.020519  Gnorm:      1.863351  CPU:    0.154
  Cycle:      8 Energy:      -134.260756  Gnorm:      1.726621  CPU:    0.173
  Cycle:      9 Energy:      -135.231422  Gnorm:      1.585734  CPU:    0.191
  Cycle:     10 Energy:      -135.629866  Gnorm:      1.013564  CPU:    0.206
  Cycle:     11 Energy:      -135.938159  Gnorm:      1.006390  CPU:    0.223
  Cycle:     12 Energy:      -136.204812  Gnorm:      1.067428  CPU:    0.239
  Cycle:     13 Energy:      -136.676191  Gnorm:      1.162413  CPU:    0.256
  Cycle:     14 Energy:      -137.385365  Gnorm:      1.663969  CPU:    0.273
  Cycle:     15 Energy:      -138.209323  Gnorm:      1.498675  CPU:    0.286
  Cycle:     16 Energy:      -138.907784  Gnorm:      1.823371  CPU:    0.299
  Cycle:     17 Energy:      -140.331416  Gnorm:      2.251661  CPU:    0.314
  Cycle:     18 Energy:      -141.027766  Gnorm:      2.371725  CPU:    0.330
  Cycle:     19 Energy:      -142.034345  Gnorm:      1.157435  CPU:    0.347
  Cycle:     20 Energy:      -142.174802  Gnorm:      0.576286  CPU:    0.359
  Cycle:     21 Energy:      -142.465664  Gnorm:      1.226232  CPU:    0.375
  Cycle:     22 Energy:      -142.984979  Gnorm:      1.734193  CPU:    0.390
  Cycle:     23 Energy:      -143.680071  Gnorm:      1.719756  CPU:    0.403
  Cycle:     24 Energy:      -144.464153  Gnorm:      1.278426  CPU:    0.415
  Cycle:     25 Energy:      -145.281606  Gnorm:      2.036341  CPU:    0.431
  Cycle:     26 Energy:      -146.610780  Gnorm:      3.292010  CPU:    0.447
  Cycle:     27 Energy:      -148.204642  Gnorm:      3.275981  CPU:    0.466
  Cycle:     28 Energy:      -151.344762  Gnorm:      2.426426  CPU:    0.484
  Cycle:     29 Energy:      -152.576657  Gnorm:      1.911450  CPU:    0.499
  Cycle:     30 Energy:      -153.587301  Gnorm:      1.343132  CPU:    0.518
  Cycle:     31 Energy:      -153.967853  Gnorm:      0.686273  CPU:    0.534
  Cycle:     32 Energy:      -154.190058  Gnorm:      0.827750  CPU:    0.553
  Cycle:     33 Energy:      -154.477515  Gnorm:      0.432396  CPU:    0.573
  ** Hessian calculated **
  Cycle:     34 Energy:      -154.975177  Gnorm:      0.243051  CPU:    0.618
  Cycle:     35 Energy:      -155.028190  Gnorm:      0.183329  CPU:    0.637
  Cycle:     36 Energy:      -155.044478  Gnorm:      0.038177  CPU:    0.652
  Cycle:     37 Energy:      -155.054079  Gnorm:      0.027417  CPU:    0.671
  Cycle:     38 Energy:      -155.054935  Gnorm:      0.013209  CPU:    0.690
  Cycle:     39 Energy:      -155.055092  Gnorm:      0.005389  CPU:    0.708
  Cycle:     40 Energy:      -155.055143  Gnorm:      0.002779  CPU:    0.724
  Cycle:     41 Energy:      -155.055162  Gnorm:      0.001428  CPU:    0.740
  Cycle:     42 Energy:      -155.055163  Gnorm:      0.000665  CPU:    0.758
  Cycle:     43 Energy:      -155.055164  Gnorm:      0.000368  CPU:    0.774
  ** Hessian calculated **


  **** Optimisation achieved ****


  Final energy =    -155.05516385 eV      
  Final Gnorm  =       0.00000002

  Components of energy : 

--------------------------------------------------------------------------------
  Interatomic potentials     =          13.97121763 eV    
  Monopole - monopole (real) =         -82.64261635 eV    
  Monopole - monopole (recip)=         -86.38376513 eV    
  Monopole - monopole (total)=        -169.02638148 eV    
--------------------------------------------------------------------------------
  Total lattice energy       =        -155.05516385 eV    
--------------------------------------------------------------------------------
  Total lattice energy       =          -14960.4531 kJ/(mole unit cells)
--------------------------------------------------------------------------------

  Final fractional coordinates of atoms :

--------------------------------------------------------------------------------
   No.  Atomic        x           y          z          Radius
        Label       (Frac)      (Frac)     (Frac)       (Angs) 
--------------------------------------------------------------------------------
     1  Ti    c     0.000000    0.250000    0.963315    0.000000
     2  Ti    c     0.000000    0.750000    0.745463    0.000000
     3  Ti    c     0.500000    0.750000    0.463315    0.000000
     4  Ti    c     0.500000    0.250000    0.245463    0.000000
     5  O     c     0.000000    0.250000    0.190914    0.000000
     6  O     c     0.000000    0.750000    0.517864    0.000000
     7  O     c     0.500000    0.750000    0.690914    0.000000
     8  O     c     0.500000    0.250000    0.017864    0.000000
     9  O     c     0.500000    0.000000    0.354389    0.000000
    10  O     c     0.000000    1.000000    0.854389    0.000000
    11  O     c     1.000000    0.500000    0.854389    0.000000
    12  O     c     0.500000    0.500000    0.354389    0.000000
--------------------------------------------------------------------------------

  Final Cartesian lattice vectors (Angstroms) :

        3.748279    0.014108   -0.000000
       -0.023695    6.295577    0.000000
        0.000000   -0.000000    8.765882


  Final cell parameters and derivatives :

--------------------------------------------------------------------------------
       a            3.748305 Angstrom     dE/de1(xx)    -0.000000 eV/strain
       b            6.295622 Angstrom     dE/de2(yy)    -0.000000 eV/strain
       c            8.765882 Angstrom     dE/de3(zz)     0.000000 eV/strain
       alpha       90.000000 Degrees      dE/de4(yz)     0.000000 eV/strain
       beta        90.000000 Degrees      dE/de5(xz)     0.000000 eV/strain
       gamma       90.000000 Degrees      dE/de6(xy)    -0.000000 eV/strain
--------------------------------------------------------------------------------

  Primitive cell volume =           206.856532 Angs**3

  Density of cell =      2.564985 g/cm**3

  Non-primitive cell volume =           206.856532 Angs**3


  Final internal derivatives :

--------------------------------------------------------------------------------
   No.  Atomic          a             b             c           Radius
        Label          (eV)          (eV)          (eV)        (eV/Angs)
--------------------------------------------------------------------------------
      1 Ti    c       0.000000      0.000000      0.000000      0.000000
      2 Ti    c      -0.000000     -0.000000     -0.000000      0.000000
      3 Ti    c       0.000000      0.000000     -0.000000      0.000000
      4 Ti    c       0.000000     -0.000000      0.000000      0.000000
      5 O     c       0.000000     -0.000000     -0.000000      0.000000
      6 O     c       0.000000     -0.000000      0.000000      0.000000
      7 O     c      -0.000000     -0.000000     -0.000000      0.000000
      8 O     c      -0.000000      0.000000      0.000000      0.000000
      9 O     c      -0.000000     -0.000000      0.000000      0.000000
     10 O     c       0.000000     -0.000000      0.000000      0.000000
     11 O     c      -0.000000      0.000000      0.000000      0.000000
     12 O     c       0.000000      0.000000      0.000000      0.000000
--------------------------------------------------------------------------------
  Maximum abs         0.000000      0.000000      0.000000      0.000000
--------------------------------------------------------------------------------


  Time to end of optimisation =       0.8151 seconds


  Peak dynamic memory used =       1.84 MB 


  Timing analysis for GULP :

--------------------------------------------------------------------------------
  Task / Subroutine                                          Time (Seconds)
--------------------------------------------------------------------------------
  Calculation of reciprocal space energy and derivatives          0.0500
  Calculation of real space energy and derivatives                0.7479
  Calculation and manipulation of Hessian matrix                  0.0002
  Calculation of matrix inversion                                 0.0004
  Global summation overhead                                       0.0003
--------------------------------------------------------------------------------
  Total CPU time                                                  0.8151
--------------------------------------------------------------------------------


  Job Finished at 11:04.07 29th May        2024                               

