********************************************************************************
*                       GENERAL UTILITY LATTICE PROGRAM                        *
*                                 Julian Gale                                  *
*                       Curtin Institute for Computation                       *
*                    School of Molecular and Life Sciences                     *
*                    Curtin University, Western Australia                      *
********************************************************************************
* Version = 6.0.0 * Last modified =  12th July 2021                            *
********************************************************************************
*  optimise     - perform optimisation run                                     *
*  conp         - constant pressure calculation                                *
*  conjugate    - use conjugate gradients minimiser                            *
********************************************************************************

  Job Started  at 11:03.54 29th May        2024                               

  Number of CPUs =     1


  Total number of configurations input =      1

********************************************************************************
*  Input for Configuration =   1                                               *
********************************************************************************

  Formula = Ti4O8                                                       

  Number of irreducible atoms/shells =      12


  Total number atoms/shells =      12

  Dimensionality = 3               :  Bulk   



  Cartesian lattice vectors (Angstroms) :

        4.522275    0.000000    0.507345
        0.000000    6.346012    0.000000
        0.000000    0.000000    4.431436

  Cell parameters (Angstroms/Degrees):

  a =       4.5506    alpha =  90.0000
  b =       6.3460    beta  =  83.5989
  c =       4.4314    gamma =  90.0000

  Initial cell volume =         127.175159 Angs**3

  Temperature of configuration =   0.00     K 

  Pressure of configuration =         0.000 GPa 

  Fractional coordinates of asymmetric unit :

--------------------------------------------------------------------------------
   No.  Atomic       x           y          z         Charge      Occupancy
        Label      (Frac)      (Frac)     (Frac)        (e)         (Frac)  
--------------------------------------------------------------------------------
      1 Ti    c    0.000000    0.000000    0.500000     2.19600    1.000000    
      2 Ti    c    0.000000 *  0.500000 *  0.500000 *   2.19600    1.000000    
      3 Ti    c    0.000000 *  0.000000 *  0.000000 *   2.19600    1.000000    
      4 Ti    c    0.000000 *  0.500000 *  0.000000 *   2.19600    1.000000    
      5 O     c    0.500000 *  0.000000 *  0.000000 *  -1.09800    1.000000    
      6 O     c    0.500000 *  0.500000 *  0.000000 *  -1.09800    1.000000    
      7 O     c    0.500000 *  0.000000 *  0.500000 *  -1.09800    1.000000    
      8 O     c    0.500000 *  0.500000 *  0.500000 *  -1.09800    1.000000    
      9 O     c    0.362553 *  0.425903 *  0.701605 *  -1.09800    1.000000    
     10 O     c    0.637447 *  0.925903 *  0.298395 *  -1.09800    1.000000    
     11 O     c    0.637447 *  0.574097 *  0.298395 *  -1.09800    1.000000    
     12 O     c    0.362553 *  0.074097 *  0.701605 *  -1.09800    1.000000    
--------------------------------------------------------------------------------



********************************************************************************
*  General input information                                                   *
********************************************************************************

  Species output for all configurations : 

--------------------------------------------------------------------------------
  Species    Type    Atomic    Atomic    Charge       Radii (Angs)     Library
                     Number     Mass       (e)     Cova   Ionic  VDW   Symbol
--------------------------------------------------------------------------------
    Ti       Core       22      47.88   2.196000   1.470  0.000  2.190          
    O        Core        8      16.00  -1.098000   0.730  0.000  1.360          
--------------------------------------------------------------------------------


  Lattice summation method               =    Ewald          (3-D)
                                         =    Parry          (2-D)
                                         =    Saunders et al (1-D)
  Accuracy factor for lattice sums       =   12.000


  Analytic derivatives to be used

  Time limit = Infinity

  Maximum range for interatomic potentials =    100000.000000 Angstroms

  General interatomic potentials :

--------------------------------------------------------------------------------
Atom  Types   Potential      Parameter       Value         Units   Cutoffs(Ang)
  1     2                                                            Min /  Max 
--------------------------------------------------------------------------------
Ti   c Ti   c Buckingham    Buckingham A     31120.100    eV        0.000 15.000
                            Buckingham rho  0.15400000    Ang       
                            Buckingham C     5.2500000    eV*Ang^6  
--------------------------------------------------------------------------------
O    c O    c Buckingham    Buckingham A     11782.700    eV        0.000 15.000
                            Buckingham rho  0.23400000    Ang       
                            Buckingham C     30.220000    eV*Ang^6  
--------------------------------------------------------------------------------
O    c Ti   c Buckingham    Buckingham A     16957.500    eV        0.000 15.000
                            Buckingham rho  0.19400000    Ang       
                            Buckingham C     12.590000    eV*Ang^6  
--------------------------------------------------------------------------------
Ti   c Ti   c Lennard       Lennard-Jones A  1.0000000    eV*Ang^m  0.000 15.000
                            Lennard-Jones B  0.0000000    eV*Ang^n  
                            Exponent m        12          None
                            Exponent n         6          None
--------------------------------------------------------------------------------
O    c O    c Lennard       Lennard-Jones A  1.0000000    eV*Ang^m  0.000 15.000
                            Lennard-Jones B  0.0000000    eV*Ang^n  
                            Exponent m        12          None
                            Exponent n         6          None
--------------------------------------------------------------------------------
O    c Ti   c Lennard       Lennard-Jones A  1.0000000    eV*Ang^m  0.000 15.000
                            Lennard-Jones B  0.0000000    eV*Ang^n  
                            Exponent m        12          None
                            Exponent n         6          None
--------------------------------------------------------------------------------

********************************************************************************
*  Output for configuration   1                                                *
********************************************************************************


  Components of energy : 

--------------------------------------------------------------------------------
  Interatomic potentials     =         364.56714835 eV    
  Monopole - monopole (real) =          19.72180512 eV    
  Monopole - monopole (recip)=         -87.07630851 eV    
  Monopole - monopole (total)=         -67.35450339 eV    
--------------------------------------------------------------------------------
  Total lattice energy       =         297.21264496 eV    
--------------------------------------------------------------------------------
  Total lattice energy       =           28676.4769 kJ/(mole unit cells)
--------------------------------------------------------------------------------


  Number of variables =       39

  Maximum number of calculations  =          1000
  Maximum Hessian update interval =            10
  Maximum step size               =   1.000000000
  Maximum parameter tolerance     =   0.000010000
  Maximum function  tolerance     =   0.000010000
  Maximum gradient  tolerance     =   0.001000000
  Maximum gradient  component     =   0.010000000

  Symmetry not applied to optimisation

  Cell parameters to be optimised using strains

  Conjugate gradient optimiser to be used

  Lower half triangular hessian to be used

  Minimiser to switch to BFGS with exact hessian
  When gradient norm is less than     0.500000

  Start of bulk optimisation :

  Cycle:      0 Energy:       297.212645  Gnorm:     87.333383  CPU:    0.023
  Cycle:      1 Energy:        -2.194851  Gnorm:     22.407029  CPU:    0.056
  Cycle:      2 Energy:       -50.823789  Gnorm:     14.647412  CPU:    0.079
  Cycle:      3 Energy:      -118.867726  Gnorm:      7.046869  CPU:    0.112
  Cycle:      4 Energy:      -142.637827  Gnorm:      1.925230  CPU:    0.149
  Cycle:      5 Energy:      -144.508051  Gnorm:      1.422816  CPU:    0.165
  Cycle:      6 Energy:      -146.485329  Gnorm:      0.911373  CPU:    0.183
  Cycle:      7 Energy:      -147.174880  Gnorm:      0.905971  CPU:    0.197
  Cycle:      8 Energy:      -148.337593  Gnorm:      0.642445  CPU:    0.214
  Cycle:      9 Energy:      -148.556642  Gnorm:      0.529857  CPU:    0.230
  Cycle:     10 Energy:      -148.677694  Gnorm:      0.341135  CPU:    0.244
  ** Hessian calculated **
  Cycle:     11 Energy:      -148.895144  Gnorm:      0.064973  CPU:    0.282
  Cycle:     12 Energy:      -148.906768  Gnorm:      0.023585  CPU:    0.294
  Cycle:     13 Energy:      -148.908939  Gnorm:      0.005540  CPU:    0.310
  Cycle:     14 Energy:      -148.909482  Gnorm:      0.005379  CPU:    0.323
  Cycle:     15 Energy:      -148.909515  Gnorm:      0.001734  CPU:    0.336
  Cycle:     16 Energy:      -148.909515  Gnorm:      0.001729  CPU:    0.360
  Cycle:     17 Energy:      -148.909515  Gnorm:      0.001675  CPU:    0.378
  Cycle:     18 Energy:      -148.909515  Gnorm:      0.001616  CPU:    0.397
  Cycle:     19 Energy:      -148.909515  Gnorm:      0.001553  CPU:    0.415
  Cycle:     20 Energy:      -148.909516  Gnorm:      0.001488  CPU:    0.434
  ** Hessian calculated **
  Cycle:     21 Energy:      -148.909516  Gnorm:      0.001486  CPU:    0.479
  Cycle:     22 Energy:      -148.909516  Gnorm:      0.001469  CPU:    0.498
  Cycle:     23 Energy:      -148.909516  Gnorm:      0.001432  CPU:    0.517
  Cycle:     24 Energy:      -148.909516  Gnorm:      0.001398  CPU:    0.535
  Cycle:     25 Energy:      -148.909516  Gnorm:      0.001371  CPU:    0.554
  Cycle:     26 Energy:      -148.909516  Gnorm:      0.001347  CPU:    0.572
  Cycle:     27 Energy:      -148.909516  Gnorm:      0.001328  CPU:    0.591
  Cycle:     28 Energy:      -148.909516  Gnorm:      0.001310  CPU:    0.609
  Cycle:     29 Energy:      -148.909516  Gnorm:      0.001294  CPU:    0.628
  Cycle:     30 Energy:      -148.909516  Gnorm:      0.001279  CPU:    0.646
  ** Hessian calculated **
  Cycle:     31 Energy:      -148.909516  Gnorm:      0.001282  CPU:    0.718
  ** Hessian calculated **


  **** Conditions for a minimum have not been satisfied. However ****
  **** no lower point can be found - treat results with caution  ****
  **** unless gradient norm is small (less than 0.1)             ****


  Final energy =    -148.90951634 eV      
  Final Gnorm  =       0.00128394

  Components of energy : 

--------------------------------------------------------------------------------
  Interatomic potentials     =          13.99720964 eV    
  Monopole - monopole (real) =         -85.28708883 eV    
  Monopole - monopole (recip)=         -77.61963716 eV    
  Monopole - monopole (total)=        -162.90672599 eV    
--------------------------------------------------------------------------------
  Total lattice energy       =        -148.90951634 eV    
--------------------------------------------------------------------------------
  Total lattice energy       =          -14367.4920 kJ/(mole unit cells)
--------------------------------------------------------------------------------

  Final fractional coordinates of atoms :

--------------------------------------------------------------------------------
   No.  Atomic        x           y          z          Radius
        Label       (Frac)      (Frac)     (Frac)       (Angs) 
--------------------------------------------------------------------------------
     1  Ti    c     0.000000    0.000000    0.500000    0.000000
     2  Ti    c     0.000000    0.500000    0.500000    0.000000
     3  Ti    c     0.000000    1.000000    0.000000    0.000000
     4  Ti    c     0.000000    0.500000    1.000000    0.000000
     5  O     c     0.500000    0.000000    0.000000    0.000000
     6  O     c     0.500000    0.500000    1.000000    0.000000
     7  O     c     0.500000    1.000000    0.500000    0.000000
     8  O     c     0.500000    0.500000    0.500000    0.000000
     9  O     c     0.999996    0.500015    0.750005    0.000000
    10  O     c     0.000004    0.000015    0.249995    0.000000
    11  O     c     0.000004    0.499985    0.249995    0.000000
    12  O     c     0.999996    0.999985    0.750005    0.000000
--------------------------------------------------------------------------------

  Final Cartesian lattice vectors (Angstroms) :

        3.715403   -0.000000    0.296078
       -0.000000   10.338972   -0.000000
       -0.592103   -0.000000    7.431280


  Final cell parameters and derivatives :

--------------------------------------------------------------------------------
       a            3.727181 Angstrom     dE/de1(xx)     0.010953 eV/strain
       b           10.338972 Angstrom     dE/de2(yy)    -0.001281 eV/strain
       c            7.454832 Angstrom     dE/de3(zz)     0.043022 eV/strain
       alpha       90.000000 Degrees      dE/de4(yz)     0.000000 eV/strain
       beta        89.999311 Degrees      dE/de5(xz)    -0.001422 eV/strain
       gamma       90.000000 Degrees      dE/de6(xy)     0.000000 eV/strain
--------------------------------------------------------------------------------

  Primitive cell volume =           287.273588 Angs**3

  Density of cell =      1.846964 g/cm**3

  Non-primitive cell volume =           287.273588 Angs**3


  Final internal derivatives :

--------------------------------------------------------------------------------
   No.  Atomic          a             b             c           Radius
        Label          (eV)          (eV)          (eV)        (eV/Angs)
--------------------------------------------------------------------------------
      1 Ti    c       0.000000      0.000000      0.000000      0.000000
      2 Ti    c      -0.000000      0.000000      0.000000      0.000000
      3 Ti    c      -0.000000     -0.000000     -0.000000      0.000000
      4 Ti    c      -0.000000      0.000000      0.000000      0.000000
      5 O     c      -0.000000      0.000000      0.000000      0.000000
      6 O     c      -0.000000     -0.000000      0.000000      0.000000
      7 O     c      -0.000000      0.000000      0.000000      0.000000
      8 O     c      -0.000000     -0.000000      0.000000      0.000000
      9 O     c      -0.000417      0.001943      0.011369      0.000000
     10 O     c       0.000417      0.001943     -0.011369      0.000000
     11 O     c       0.000417     -0.001943     -0.011369      0.000000
     12 O     c      -0.000417     -0.001943      0.011369      0.000000
--------------------------------------------------------------------------------
  Maximum abs         0.000417      0.001943      0.011369      0.000000
--------------------------------------------------------------------------------


  Time to end of optimisation =       0.7895 seconds


  Peak dynamic memory used =       1.84 MB 


  Timing analysis for GULP :

--------------------------------------------------------------------------------
  Task / Subroutine                                          Time (Seconds)
--------------------------------------------------------------------------------
  Calculation of reciprocal space energy and derivatives          0.0455
  Calculation of real space energy and derivatives                0.7264
  Calculation and manipulation of Hessian matrix                  0.0005
  Calculation of matrix inversion                                 0.0008
  Global summation overhead                                       0.0003
--------------------------------------------------------------------------------
  Total CPU time                                                  0.7896
--------------------------------------------------------------------------------


  Job Finished at 11:03.54 29th May        2024                               

