********************************************************************************
*                       GENERAL UTILITY LATTICE PROGRAM                        *
*                                 Julian Gale                                  *
*                       Curtin Institute for Computation                       *
*                    School of Molecular and Life Sciences                     *
*                    Curtin University, Western Australia                      *
********************************************************************************
* Version = 6.0.0 * Last modified =  12th July 2021                            *
********************************************************************************
*  optimise     - perform optimisation run                                     *
*  conp         - constant pressure calculation                                *
*  conjugate    - use conjugate gradients minimiser                            *
********************************************************************************

  Job Started  at 11:04.04 29th May        2024                               

  Number of CPUs =     1


  Total number of configurations input =      1

********************************************************************************
*  Input for Configuration =   1                                               *
********************************************************************************

  Formula = Ti4O8                                                       

  Number of irreducible atoms/shells =      12


  Total number atoms/shells =      12

  Dimensionality = 3               :  Bulk   



  Cartesian lattice vectors (Angstroms) :

        7.216592    0.000000    0.000000
        0.000000    5.777699    0.000000
        0.000000    0.000000    5.492219

  Cell parameters (Angstroms/Degrees):

  a =       7.2166    alpha =  90.0000
  b =       5.7777    beta  =  90.0000
  c =       5.4922    gamma =  90.0000

  Initial cell volume =         228.999674 Angs**3

  Temperature of configuration =   0.00     K 

  Pressure of configuration =         0.000 GPa 

  Fractional coordinates of asymmetric unit :

--------------------------------------------------------------------------------
   No.  Atomic       x           y          z         Charge      Occupancy
        Label      (Frac)      (Frac)     (Frac)        (e)         (Frac)  
--------------------------------------------------------------------------------
      1 Ti    c    0.000000    0.663322    0.250000     2.19600    1.000000    
      2 Ti    c    0.000000 *  0.336678 *  0.750000 *   2.19600    1.000000    
      3 Ti    c    0.500000 *  0.163322 *  0.250000 *   2.19600    1.000000    
      4 Ti    c    0.500000 *  0.836678 *  0.750000 *   2.19600    1.000000    
      5 O     c    0.877860 *  0.311321 *  0.905514 *  -1.09800    1.000000    
      6 O     c    0.122140 *  0.688679 *  0.405514 *  -1.09800    1.000000    
      7 O     c    0.122140 *  0.311321 *  0.594486 *  -1.09800    1.000000    
      8 O     c    0.877860 *  0.688679 *  0.094486 *  -1.09800    1.000000    
      9 O     c    0.377860 *  0.811321 *  0.905514 *  -1.09800    1.000000    
     10 O     c    0.622140 *  0.188679 *  0.405514 *  -1.09800    1.000000    
     11 O     c    0.622140 *  0.811321 *  0.594486 *  -1.09800    1.000000    
     12 O     c    0.377860 *  0.188679 *  0.094486 *  -1.09800    1.000000    
--------------------------------------------------------------------------------



********************************************************************************
*  General input information                                                   *
********************************************************************************

  Species output for all configurations : 

--------------------------------------------------------------------------------
  Species    Type    Atomic    Atomic    Charge       Radii (Angs)     Library
                     Number     Mass       (e)     Cova   Ionic  VDW   Symbol
--------------------------------------------------------------------------------
    Ti       Core       22      47.88   2.196000   1.470  0.000  2.190          
    O        Core        8      16.00  -1.098000   0.730  0.000  1.360          
--------------------------------------------------------------------------------


  Lattice summation method               =    Ewald          (3-D)
                                         =    Parry          (2-D)
                                         =    Saunders et al (1-D)
  Accuracy factor for lattice sums       =   12.000


  Analytic derivatives to be used

  Time limit = Infinity

  Maximum range for interatomic potentials =    100000.000000 Angstroms

  General interatomic potentials :

--------------------------------------------------------------------------------
Atom  Types   Potential      Parameter       Value         Units   Cutoffs(Ang)
  1     2                                                            Min /  Max 
--------------------------------------------------------------------------------
Ti   c Ti   c Buckingham    Buckingham A     31120.100    eV        0.000 15.000
                            Buckingham rho  0.15400000    Ang       
                            Buckingham C     5.2500000    eV*Ang^6  
--------------------------------------------------------------------------------
O    c O    c Buckingham    Buckingham A     11782.700    eV        0.000 15.000
                            Buckingham rho  0.23400000    Ang       
                            Buckingham C     30.220000    eV*Ang^6  
--------------------------------------------------------------------------------
O    c Ti   c Buckingham    Buckingham A     16957.500    eV        0.000 15.000
                            Buckingham rho  0.19400000    Ang       
                            Buckingham C     12.590000    eV*Ang^6  
--------------------------------------------------------------------------------
Ti   c Ti   c Lennard       Lennard-Jones A  1.0000000    eV*Ang^m  0.000 15.000
                            Lennard-Jones B  0.0000000    eV*Ang^n  
                            Exponent m        12          None
                            Exponent n         6          None
--------------------------------------------------------------------------------
O    c O    c Lennard       Lennard-Jones A  1.0000000    eV*Ang^m  0.000 15.000
                            Lennard-Jones B  0.0000000    eV*Ang^n  
                            Exponent m        12          None
                            Exponent n         6          None
--------------------------------------------------------------------------------
O    c Ti   c Lennard       Lennard-Jones A  1.0000000    eV*Ang^m  0.000 15.000
                            Lennard-Jones B  0.0000000    eV*Ang^n  
                            Exponent m        12          None
                            Exponent n         6          None
--------------------------------------------------------------------------------

********************************************************************************
*  Output for configuration   1                                                *
********************************************************************************


  Components of energy : 

--------------------------------------------------------------------------------
  Interatomic potentials     =         205.05929516 eV    
  Monopole - monopole (real) =        -114.80471150 eV    
  Monopole - monopole (recip)=         -83.59874921 eV    
  Monopole - monopole (total)=        -198.40346072 eV    
--------------------------------------------------------------------------------
  Total lattice energy       =           6.65583444 eV    
--------------------------------------------------------------------------------
  Total lattice energy       =             642.1863 kJ/(mole unit cells)
--------------------------------------------------------------------------------


  Number of variables =       39

  Maximum number of calculations  =          1000
  Maximum Hessian update interval =            10
  Maximum step size               =   1.000000000
  Maximum parameter tolerance     =   0.000010000
  Maximum function  tolerance     =   0.000010000
  Maximum gradient  tolerance     =   0.001000000
  Maximum gradient  component     =   0.010000000

  Symmetry not applied to optimisation

  Cell parameters to be optimised using strains

  Conjugate gradient optimiser to be used

  Lower half triangular hessian to be used

  Minimiser to switch to BFGS with exact hessian
  When gradient norm is less than     0.500000

  Start of bulk optimisation :

  Cycle:      0 Energy:         6.655834  Gnorm:     57.619296  CPU:    0.017
  Cycle:      1 Energy:      -130.991664  Gnorm:      1.365758  CPU:    0.039
  Cycle:      2 Energy:      -133.798549  Gnorm:      1.376307  CPU:    0.055
  Cycle:      3 Energy:      -139.505594  Gnorm:      2.444318  CPU:    0.076
  Cycle:      4 Energy:      -142.187633  Gnorm:      1.659868  CPU:    0.097
  Cycle:      5 Energy:      -145.343147  Gnorm:      1.440327  CPU:    0.118
  Cycle:      6 Energy:      -149.223761  Gnorm:      0.653727  CPU:    0.139
  Cycle:      7 Energy:      -149.933446  Gnorm:      0.502334  CPU:    0.160
  Cycle:      8 Energy:      -150.803195  Gnorm:      0.635057  CPU:    0.186
  Cycle:      9 Energy:      -151.199787  Gnorm:      0.341714  CPU:    0.205
  ** Hessian calculated **
  Cycle:     10 Energy:      -151.675894  Gnorm:      0.382882  CPU:    0.261
  Cycle:     11 Energy:      -151.985395  Gnorm:      0.637962  CPU:    0.281
  Cycle:     12 Energy:      -152.636624  Gnorm:      0.926215  CPU:    0.313
  Cycle:     13 Energy:      -153.163791  Gnorm:      0.958629  CPU:    0.336
  Cycle:     14 Energy:      -154.783773  Gnorm:      0.934717  CPU:    0.368
  Cycle:     15 Energy:      -155.765563  Gnorm:      0.769499  CPU:    0.390
  Cycle:     16 Energy:      -156.704814  Gnorm:      0.668739  CPU:    0.417
  Cycle:     17 Energy:      -157.351731  Gnorm:      0.521714  CPU:    0.439
  Cycle:     18 Energy:      -157.753230  Gnorm:      0.540245  CPU:    0.462
  Cycle:     19 Energy:      -158.563495  Gnorm:      0.399159  CPU:    0.489
  ** Hessian calculated **
  Cycle:     20 Energy:      -159.015236  Gnorm:      0.115744  CPU:    0.557
  Cycle:     21 Energy:      -159.057037  Gnorm:      0.033048  CPU:    0.584
  Cycle:     22 Energy:      -159.060794  Gnorm:      0.008248  CPU:    0.606
  Cycle:     23 Energy:      -159.060884  Gnorm:      0.003917  CPU:    0.628
  Cycle:     24 Energy:      -159.060908  Gnorm:      0.000889  CPU:    0.650


  **** Optimisation achieved ****


  Final energy =    -159.06090976 eV      
  Final Gnorm  =       0.00018714

  Components of energy : 

--------------------------------------------------------------------------------
  Interatomic potentials     =          12.28964908 eV    
  Monopole - monopole (real) =         -67.80765198 eV    
  Monopole - monopole (recip)=        -103.54290685 eV    
  Monopole - monopole (total)=        -171.35055883 eV    
--------------------------------------------------------------------------------
  Total lattice energy       =        -159.06090976 eV    
--------------------------------------------------------------------------------
  Total lattice energy       =          -15346.9463 kJ/(mole unit cells)
--------------------------------------------------------------------------------

  Final fractional coordinates of atoms :

--------------------------------------------------------------------------------
   No.  Atomic        x           y          z          Radius
        Label       (Frac)      (Frac)     (Frac)       (Angs) 
--------------------------------------------------------------------------------
     1  Ti    c     0.000000    0.663322    0.250000    0.000000
     2  Ti    c     1.000000    0.163325    0.750000    0.000000
     3  Ti    c     0.500000    0.988369    0.250000    0.000000
     4  Ti    c     0.500000    0.488371    0.750000    0.000000
     5  O     c     0.832542    0.439746    0.975967    0.000000
     6  O     c     0.167454    0.939751    0.475968    0.000000
     7  O     c     0.167458    0.439746    0.524033    0.000000
     8  O     c     0.832546    0.939751    0.024032    0.000000
     9  O     c     0.332548    0.711943    0.024037    0.000000
    10  O     c     0.667451    0.211944    0.524035    0.000000
    11  O     c     0.667452    0.711943    0.475962    0.000000
    12  O     c     0.332549    0.211944    0.975965    0.000000
--------------------------------------------------------------------------------

  Final Cartesian lattice vectors (Angstroms) :

        4.935715   -0.000023   -0.001138
        0.000026    5.379221    0.000001
        0.001042   -0.000001    4.522199


  Final cell parameters and derivatives :

--------------------------------------------------------------------------------
       a            4.935715 Angstrom     dE/de1(xx)     0.002359 eV/strain
       b            5.379221 Angstrom     dE/de2(yy)     0.000137 eV/strain
       c            4.522199 Angstrom     dE/de3(zz)     0.000594 eV/strain
       alpha       90.000000 Degrees      dE/de4(yz)    -0.000011 eV/strain
       beta        90.000000 Degrees      dE/de5(xz)     0.000055 eV/strain
       gamma       90.000000 Degrees      dE/de6(xy)     0.000013 eV/strain
--------------------------------------------------------------------------------

  Primitive cell volume =           120.065768 Angs**3

  Density of cell =      4.419110 g/cm**3

  Non-primitive cell volume =           120.065768 Angs**3


  Final internal derivatives :

--------------------------------------------------------------------------------
   No.  Atomic          a             b             c           Radius
        Label          (eV)          (eV)          (eV)        (eV/Angs)
--------------------------------------------------------------------------------
      1 Ti    c       0.000000      0.000000      0.000000      0.000000
      2 Ti    c      -0.000038     -0.000460      0.000036      0.000000
      3 Ti    c       0.000005     -0.000917      0.000008      0.000000
      4 Ti    c      -0.000010      0.002022      0.000011      0.000000
      5 O     c      -0.002466     -0.001310     -0.000201      0.000000
      6 O     c       0.001016      0.002612      0.000649      0.000000
      7 O     c       0.002507     -0.001228      0.000156      0.000000
      8 O     c      -0.001048      0.002610     -0.000660      0.000000
      9 O     c       0.000928     -0.000677      0.001122      0.000000
     10 O     c      -0.001296     -0.000412      0.000721      0.000000
     11 O     c      -0.000935     -0.000663     -0.001121      0.000000
     12 O     c       0.001302     -0.000386     -0.000732      0.000000
--------------------------------------------------------------------------------
  Maximum abs         0.002507      0.002612      0.001122      0.000000
--------------------------------------------------------------------------------


  Time to end of optimisation =       0.6721 seconds


  Peak dynamic memory used =       1.84 MB 


  Timing analysis for GULP :

--------------------------------------------------------------------------------
  Task / Subroutine                                          Time (Seconds)
--------------------------------------------------------------------------------
  Calculation of reciprocal space energy and derivatives          0.0337
  Calculation of real space energy and derivatives                0.6238
  Calculation and manipulation of Hessian matrix                  0.0002
  Calculation of matrix inversion                                 0.0004
  Global summation overhead                                       0.0002
--------------------------------------------------------------------------------
  Total CPU time                                                  0.6722
--------------------------------------------------------------------------------


  Job Finished at 11:04.04 29th May        2024                               

