********************************************************************************
*                       GENERAL UTILITY LATTICE PROGRAM                        *
*                                 Julian Gale                                  *
*                       Curtin Institute for Computation                       *
*                    School of Molecular and Life Sciences                     *
*                    Curtin University, Western Australia                      *
********************************************************************************
* Version = 6.0.0 * Last modified =  12th July 2021                            *
********************************************************************************
*  optimise     - perform optimisation run                                     *
*  conp         - constant pressure calculation                                *
*  conjugate    - use conjugate gradients minimiser                            *
********************************************************************************

  Job Started  at 11:04.05 29th May        2024                               

  Number of CPUs =     1


  Total number of configurations input =      1

********************************************************************************
*  Input for Configuration =   1                                               *
********************************************************************************

  Formula = Ti4O8                                                       

  Number of irreducible atoms/shells =      12


  Total number atoms/shells =      12

  Dimensionality = 3               :  Bulk   



  Cartesian lattice vectors (Angstroms) :

        7.108997    0.000000    0.000000
        0.000000    4.915285    0.000000
        0.000000    0.000000    5.577420

  Cell parameters (Angstroms/Degrees):

  a =       7.1090    alpha =  90.0000
  b =       4.9153    beta  =  90.0000
  c =       5.5774    gamma =  90.0000

  Initial cell volume =         194.890392 Angs**3

  Temperature of configuration =   0.00     K 

  Pressure of configuration =         0.000 GPa 

  Fractional coordinates of asymmetric unit :

--------------------------------------------------------------------------------
   No.  Atomic       x           y          z         Charge      Occupancy
        Label      (Frac)      (Frac)     (Frac)        (e)         (Frac)  
--------------------------------------------------------------------------------
      1 Ti    c    0.000000    0.000000    0.000000     2.19600    1.000000    
      2 Ti    c    0.000000 *  0.500000 *  0.500000 *   2.19600    1.000000    
      3 Ti    c    0.500000 *  0.000000 *  0.500000 *   2.19600    1.000000    
      4 Ti    c    0.500000 *  0.500000 *  0.000000 *   2.19600    1.000000    
      5 O     c    0.250000 *  0.250000 *  0.250000 *  -1.09800    1.000000    
      6 O     c    0.250000 *  0.750000 *  0.750000 *  -1.09800    1.000000    
      7 O     c    0.750000 *  0.250000 *  0.750000 *  -1.09800    1.000000    
      8 O     c    0.750000 *  0.750000 *  0.250000 *  -1.09800    1.000000    
      9 O     c    0.000000 *  0.000000 *  0.500000 *  -1.09800    1.000000    
     10 O     c    0.000000 *  0.500000 *  0.000000 *  -1.09800    1.000000    
     11 O     c    0.500000 *  0.000000 *  0.000000 *  -1.09800    1.000000    
     12 O     c    0.500000 *  0.500000 *  0.500000 *  -1.09800    1.000000    
--------------------------------------------------------------------------------



********************************************************************************
*  General input information                                                   *
********************************************************************************

  Species output for all configurations : 

--------------------------------------------------------------------------------
  Species    Type    Atomic    Atomic    Charge       Radii (Angs)     Library
                     Number     Mass       (e)     Cova   Ionic  VDW   Symbol
--------------------------------------------------------------------------------
    Ti       Core       22      47.88   2.196000   1.470  0.000  2.190          
    O        Core        8      16.00  -1.098000   0.730  0.000  1.360          
--------------------------------------------------------------------------------


  Lattice summation method               =    Ewald          (3-D)
                                         =    Parry          (2-D)
                                         =    Saunders et al (1-D)
  Accuracy factor for lattice sums       =   12.000


  Analytic derivatives to be used

  Time limit = Infinity

  Maximum range for interatomic potentials =    100000.000000 Angstroms

  General interatomic potentials :

--------------------------------------------------------------------------------
Atom  Types   Potential      Parameter       Value         Units   Cutoffs(Ang)
  1     2                                                            Min /  Max 
--------------------------------------------------------------------------------
Ti   c Ti   c Buckingham    Buckingham A     31120.100    eV        0.000 15.000
                            Buckingham rho  0.15400000    Ang       
                            Buckingham C     5.2500000    eV*Ang^6  
--------------------------------------------------------------------------------
O    c O    c Buckingham    Buckingham A     11782.700    eV        0.000 15.000
                            Buckingham rho  0.23400000    Ang       
                            Buckingham C     30.220000    eV*Ang^6  
--------------------------------------------------------------------------------
O    c Ti   c Buckingham    Buckingham A     16957.500    eV        0.000 15.000
                            Buckingham rho  0.19400000    Ang       
                            Buckingham C     12.590000    eV*Ang^6  
--------------------------------------------------------------------------------
Ti   c Ti   c Lennard       Lennard-Jones A  1.0000000    eV*Ang^m  0.000 15.000
                            Lennard-Jones B  0.0000000    eV*Ang^n  
                            Exponent m        12          None
                            Exponent n         6          None
--------------------------------------------------------------------------------
O    c O    c Lennard       Lennard-Jones A  1.0000000    eV*Ang^m  0.000 15.000
                            Lennard-Jones B  0.0000000    eV*Ang^n  
                            Exponent m        12          None
                            Exponent n         6          None
--------------------------------------------------------------------------------
O    c Ti   c Lennard       Lennard-Jones A  1.0000000    eV*Ang^m  0.000 15.000
                            Lennard-Jones B  0.0000000    eV*Ang^n  
                            Exponent m        12          None
                            Exponent n         6          None
--------------------------------------------------------------------------------

********************************************************************************
*  Output for configuration   1                                                *
********************************************************************************


  Components of energy : 

--------------------------------------------------------------------------------
  Interatomic potentials     =           0.37244505 eV    
  Monopole - monopole (real) =         -43.65186795 eV    
  Monopole - monopole (recip)=         -88.01556917 eV    
  Monopole - monopole (total)=        -131.66743712 eV    
--------------------------------------------------------------------------------
  Total lattice energy       =        -131.29499206 eV    
--------------------------------------------------------------------------------
  Total lattice energy       =          -12667.9597 kJ/(mole unit cells)
--------------------------------------------------------------------------------


  Number of variables =       39

  Maximum number of calculations  =          1000
  Maximum Hessian update interval =            10
  Maximum step size               =   1.000000000
  Maximum parameter tolerance     =   0.000010000
  Maximum function  tolerance     =   0.000010000
  Maximum gradient  tolerance     =   0.001000000
  Maximum gradient  component     =   0.010000000

  Symmetry not applied to optimisation

  Cell parameters to be optimised using strains

  Conjugate gradient optimiser to be used

  Lower half triangular hessian to be used

  Minimiser to switch to BFGS with exact hessian
  When gradient norm is less than     0.500000

  Start of bulk optimisation :

  Cycle:      0 Energy:      -131.294992  Gnorm:      1.666539  CPU:    0.018
  Cycle:      1 Energy:      -143.723720  Gnorm:      0.851886  CPU:    0.049
  Cycle:      2 Energy:      -143.862705  Gnorm:      1.009932  CPU:    0.072
  Cycle:      3 Energy:      -145.305458  Gnorm:      0.241161  CPU:    0.098
  ** Hessian calculated **
  Cycle:      4 Energy:      -145.763117  Gnorm:      0.477589  CPU:    0.163
  Cycle:      5 Energy:      -145.987613  Gnorm:      0.525322  CPU:    0.185
  Cycle:      6 Energy:      -146.315986  Gnorm:      0.247586  CPU:    0.212
  Cycle:      7 Energy:      -146.437184  Gnorm:      0.063183  CPU:    0.234
  Cycle:      8 Energy:      -146.458433  Gnorm:      0.032994  CPU:    0.257
  Cycle:      9 Energy:      -146.460383  Gnorm:      0.004236  CPU:    0.283
  Cycle:     10 Energy:      -146.460429  Gnorm:      0.001131  CPU:    0.305


  **** Optimisation achieved ****


  Final energy =    -146.46043101 eV      
  Final Gnorm  =       0.00006064

  Components of energy : 

--------------------------------------------------------------------------------
  Interatomic potentials     =          10.92519006 eV    
  Monopole - monopole (real) =         -54.21128915 eV    
  Monopole - monopole (recip)=        -103.17433192 eV    
  Monopole - monopole (total)=        -157.38562107 eV    
--------------------------------------------------------------------------------
  Total lattice energy       =        -146.46043101 eV    
--------------------------------------------------------------------------------
  Total lattice energy       =          -14131.1927 kJ/(mole unit cells)
--------------------------------------------------------------------------------

  Final fractional coordinates of atoms :

--------------------------------------------------------------------------------
   No.  Atomic        x           y          z          Radius
        Label       (Frac)      (Frac)     (Frac)       (Angs) 
--------------------------------------------------------------------------------
     1  Ti    c     0.000000    0.000000    0.000000    0.000000
     2  Ti    c     0.000000    0.500000    0.500000    0.000000
     3  Ti    c     0.500000    0.000000    0.500000    0.000000
     4  Ti    c     0.500000    0.500000    0.000000    0.000000
     5  O     c     0.250000    0.250000    0.250000    0.000000
     6  O     c     0.250000    0.750000    0.750000    0.000000
     7  O     c     0.750000    0.250000    0.750000    0.000000
     8  O     c     0.750000    0.750000    0.250000    0.000000
     9  O     c     0.000000    0.000000    0.500000    0.000000
    10  O     c     0.000000    0.500000    0.000000    0.000000
    11  O     c     0.500000    0.000000    0.000000    0.000000
    12  O     c     0.500000    0.500000    0.500000    0.000000
--------------------------------------------------------------------------------

  Final Cartesian lattice vectors (Angstroms) :

        7.394921    0.000000   -0.000000
        0.000000    4.000592   -0.000000
       -0.000000   -0.000000    4.000696


  Final cell parameters and derivatives :

--------------------------------------------------------------------------------
       a            7.394921 Angstrom     dE/de1(xx)     0.001188 eV/strain
       b            4.000592 Angstrom     dE/de2(yy)    -0.000692 eV/strain
       c            4.000696 Angstrom     dE/de3(zz)     0.001924 eV/strain
       alpha       90.000000 Degrees      dE/de4(yz)    -0.000000 eV/strain
       beta        90.000000 Degrees      dE/de5(xz)     0.000000 eV/strain
       gamma       90.000000 Degrees      dE/de6(xy)    -0.000000 eV/strain
--------------------------------------------------------------------------------

  Primitive cell volume =           118.356844 Angs**3

  Density of cell =      4.482917 g/cm**3

  Non-primitive cell volume =           118.356844 Angs**3


  Final internal derivatives :

--------------------------------------------------------------------------------
   No.  Atomic          a             b             c           Radius
        Label          (eV)          (eV)          (eV)        (eV/Angs)
--------------------------------------------------------------------------------
      1 Ti    c       0.000000      0.000000      0.000000      0.000000
      2 Ti    c      -0.000000      0.000000      0.000000      0.000000
      3 Ti    c      -0.000000     -0.000000     -0.000000      0.000000
      4 Ti    c      -0.000000      0.000000     -0.000000      0.000000
      5 O     c      -0.000000      0.000000      0.000000      0.000000
      6 O     c      -0.000000     -0.000000     -0.000000      0.000000
      7 O     c       0.000000     -0.000000     -0.000000      0.000000
      8 O     c       0.000000      0.000000     -0.000000      0.000000
      9 O     c      -0.000000     -0.000000      0.000000      0.000000
     10 O     c      -0.000000     -0.000000     -0.000000      0.000000
     11 O     c      -0.000000      0.000000     -0.000000      0.000000
     12 O     c       0.000000      0.000000      0.000000      0.000000
--------------------------------------------------------------------------------
  Maximum abs         0.000000      0.000000      0.000000      0.000000
--------------------------------------------------------------------------------


  Time to end of optimisation =       0.3272 seconds


  Peak dynamic memory used =       1.84 MB 


  Timing analysis for GULP :

--------------------------------------------------------------------------------
  Task / Subroutine                                          Time (Seconds)
--------------------------------------------------------------------------------
  Calculation of reciprocal space energy and derivatives          0.0123
  Calculation of real space energy and derivatives                0.3030
  Calculation of matrix inversion                                 0.0002
--------------------------------------------------------------------------------
  Total CPU time                                                  0.3272
--------------------------------------------------------------------------------


  Job Finished at 11:04.06 29th May        2024                               

