********************************************************************************
*                       GENERAL UTILITY LATTICE PROGRAM                        *
*                                 Julian Gale                                  *
*                       Curtin Institute for Computation                       *
*                    School of Molecular and Life Sciences                     *
*                    Curtin University, Western Australia                      *
********************************************************************************
* Version = 6.0.0 * Last modified =  12th July 2021                            *
********************************************************************************
*  optimise     - perform optimisation run                                     *
*  conp         - constant pressure calculation                                *
*  conjugate    - use conjugate gradients minimiser                            *
********************************************************************************

  Job Started  at 11:03.41 29th May        2024                               

  Number of CPUs =     1


  Total number of configurations input =      1

********************************************************************************
*  Input for Configuration =   1                                               *
********************************************************************************

  Formula = Ti4O8                                                       

  Number of irreducible atoms/shells =      12


  Total number atoms/shells =      12

  Dimensionality = 3               :  Bulk   



  Cartesian lattice vectors (Angstroms) :

        9.164246    0.000000    0.144437
        0.000000    5.069634    0.000000
        0.000000    0.000000    3.212371

  Cell parameters (Angstroms/Degrees):

  a =       9.1654    alpha =  90.0000
  b =       5.0696    beta  =  89.0970
  c =       3.2124    gamma =  90.0000

  Initial cell volume =         149.244733 Angs**3

  Temperature of configuration =   0.00     K 

  Pressure of configuration =         0.000 GPa 

  Fractional coordinates of asymmetric unit :

--------------------------------------------------------------------------------
   No.  Atomic       x           y          z         Charge      Occupancy
        Label      (Frac)      (Frac)     (Frac)        (e)         (Frac)  
--------------------------------------------------------------------------------
      1 Ti    c    0.284936    0.144677    0.595360     2.19600    1.000000    
      2 Ti    c    0.715064 *  0.144677 *  0.404640 *   2.19600    1.000000    
      3 Ti    c    0.617059 *  0.761146 *  0.156446 *   2.19600    1.000000    
      4 Ti    c    0.382941 *  0.761146 *  0.843554 *   2.19600    1.000000    
      5 O     c    0.500000 *  0.936478 *  0.500000 *  -1.09800    1.000000    
      6 O     c    0.272464 *  0.623744 *  0.417626 *  -1.09800    1.000000    
      7 O     c    0.727536 *  0.623744 *  0.582374 *  -1.09800    1.000000    
      8 O     c    0.654022 *  0.989205 *  0.817181 *  -1.09800    1.000000    
      9 O     c    0.345978 *  0.989205 *  0.182819 *  -1.09800    1.000000    
     10 O     c    0.000000 *  0.326379 *  0.000000 *  -1.09800    1.000000    
     11 O     c    0.315265 *  0.908093 *  0.554830 *  -1.09800    1.000000    
     12 O     c    0.684735 *  0.908093 *  0.445170 *  -1.09800    1.000000    
--------------------------------------------------------------------------------



********************************************************************************
*  General input information                                                   *
********************************************************************************

  Species output for all configurations : 

--------------------------------------------------------------------------------
  Species    Type    Atomic    Atomic    Charge       Radii (Angs)     Library
                     Number     Mass       (e)     Cova   Ionic  VDW   Symbol
--------------------------------------------------------------------------------
    Ti       Core       22      47.88   2.196000   1.470  0.000  2.190          
    O        Core        8      16.00  -1.098000   0.730  0.000  1.360          
--------------------------------------------------------------------------------


  Lattice summation method               =    Ewald          (3-D)
                                         =    Parry          (2-D)
                                         =    Saunders et al (1-D)
  Accuracy factor for lattice sums       =   12.000


  Analytic derivatives to be used

  Time limit = Infinity

  Maximum range for interatomic potentials =    100000.000000 Angstroms

  General interatomic potentials :

--------------------------------------------------------------------------------
Atom  Types   Potential      Parameter       Value         Units   Cutoffs(Ang)
  1     2                                                            Min /  Max 
--------------------------------------------------------------------------------
Ti   c Ti   c Buckingham    Buckingham A     31120.100    eV        0.000 15.000
                            Buckingham rho  0.15400000    Ang       
                            Buckingham C     5.2500000    eV*Ang^6  
--------------------------------------------------------------------------------
O    c O    c Buckingham    Buckingham A     11782.700    eV        0.000 15.000
                            Buckingham rho  0.23400000    Ang       
                            Buckingham C     30.220000    eV*Ang^6  
--------------------------------------------------------------------------------
O    c Ti   c Buckingham    Buckingham A     16957.500    eV        0.000 15.000
                            Buckingham rho  0.19400000    Ang       
                            Buckingham C     12.590000    eV*Ang^6  
--------------------------------------------------------------------------------
Ti   c Ti   c Lennard       Lennard-Jones A  1.0000000    eV*Ang^m  0.000 15.000
                            Lennard-Jones B  0.0000000    eV*Ang^n  
                            Exponent m        12          None
                            Exponent n         6          None
--------------------------------------------------------------------------------
O    c O    c Lennard       Lennard-Jones A  1.0000000    eV*Ang^m  0.000 15.000
                            Lennard-Jones B  0.0000000    eV*Ang^n  
                            Exponent m        12          None
                            Exponent n         6          None
--------------------------------------------------------------------------------
O    c Ti   c Lennard       Lennard-Jones A  1.0000000    eV*Ang^m  0.000 15.000
                            Lennard-Jones B  0.0000000    eV*Ang^n  
                            Exponent m        12          None
                            Exponent n         6          None
--------------------------------------------------------------------------------

********************************************************************************
*  Output for configuration   1                                                *
********************************************************************************


  Components of energy : 

--------------------------------------------------------------------------------
  Interatomic potentials     =         232.01570246 eV    
  Monopole - monopole (real) =         -72.21916907 eV    
  Monopole - monopole (recip)=         -91.61252354 eV    
  Monopole - monopole (total)=        -163.83169261 eV    
--------------------------------------------------------------------------------
  Total lattice energy       =          68.18400985 eV    
--------------------------------------------------------------------------------
  Total lattice energy       =            6578.7147 kJ/(mole unit cells)
--------------------------------------------------------------------------------


  Number of variables =       39

  Maximum number of calculations  =          1000
  Maximum Hessian update interval =            10
  Maximum step size               =   1.000000000
  Maximum parameter tolerance     =   0.000010000
  Maximum function  tolerance     =   0.000010000
  Maximum gradient  tolerance     =   0.001000000
  Maximum gradient  component     =   0.010000000

  Symmetry not applied to optimisation

  Cell parameters to be optimised using strains

  Conjugate gradient optimiser to be used

  Lower half triangular hessian to be used

  Minimiser to switch to BFGS with exact hessian
  When gradient norm is less than     0.500000

  Start of bulk optimisation :

  Cycle:      0 Energy:        68.184010  Gnorm:     49.762841  CPU:    0.022
  Cycle:      1 Energy:       -96.217650  Gnorm:     14.267089  CPU:    0.057
  Cycle:      2 Energy:      -133.062109  Gnorm:      5.762754  CPU:    0.075
  Cycle:      3 Energy:      -140.091009  Gnorm:      2.603047  CPU:    0.093
  Cycle:      4 Energy:      -143.352750  Gnorm:      2.160812  CPU:    0.112
  Cycle:      5 Energy:      -145.006334  Gnorm:      1.271447  CPU:    0.128
  Cycle:      6 Energy:      -146.720850  Gnorm:      1.487398  CPU:    0.148
  Cycle:      7 Energy:      -147.742681  Gnorm:      1.509544  CPU:    0.167
  Cycle:      8 Energy:      -148.454269  Gnorm:      0.842328  CPU:    0.187
  Cycle:      9 Energy:      -149.314617  Gnorm:      0.996990  CPU:    0.211
  Cycle:     10 Energy:      -149.621341  Gnorm:      0.592548  CPU:    0.236
  Cycle:     11 Energy:      -149.866476  Gnorm:      0.491420  CPU:    0.261
  ** Hessian calculated **
  Cycle:     12 Energy:      -150.375899  Gnorm:      0.420108  CPU:    0.333
  ** Hessian calculated **
  Cycle:     13 Energy:      -150.548379  Gnorm:      0.415087  CPU:    0.398
  ** Hessian calculated **
  Cycle:     14 Energy:      -150.932350  Gnorm:      0.512381  CPU:    0.459
  Cycle:     15 Energy:      -151.594285  Gnorm:      0.808471  CPU:    0.485
  Cycle:     16 Energy:      -152.291046  Gnorm:      0.774861  CPU:    0.508
  Cycle:     17 Energy:      -153.186450  Gnorm:      0.613014  CPU:    0.531
  Cycle:     18 Energy:      -153.751316  Gnorm:      0.760492  CPU:    0.554
  Cycle:     19 Energy:      -154.244461  Gnorm:      0.608189  CPU:    0.579
  Cycle:     20 Energy:      -154.721839  Gnorm:      0.547564  CPU:    0.608
  Cycle:     21 Energy:      -155.190735  Gnorm:      0.675619  CPU:    0.639
  Cycle:     22 Energy:      -155.754732  Gnorm:      1.007786  CPU:    0.664
  Cycle:     23 Energy:      -156.421696  Gnorm:      0.999987  CPU:    0.689
  ** Hessian calculated **
  Cycle:     24 Energy:      -157.290630  Gnorm:      0.744544  CPU:    0.753
  Cycle:     25 Energy:      -157.975012  Gnorm:      0.810242  CPU:    0.784
  Cycle:     26 Energy:      -158.617551  Gnorm:      0.462421  CPU:    0.815
  Cycle:     27 Energy:      -158.841880  Gnorm:      0.262896  CPU:    0.840
  Cycle:     28 Energy:      -158.902212  Gnorm:      0.158459  CPU:    0.865
  Cycle:     29 Energy:      -158.948117  Gnorm:      0.153584  CPU:    0.897
  Cycle:     30 Energy:      -158.985575  Gnorm:      0.161337  CPU:    0.937
  Cycle:     31 Energy:      -159.032765  Gnorm:      0.163108  CPU:    0.970
  Cycle:     32 Energy:      -159.088081  Gnorm:      0.155135  CPU:    1.001
  Cycle:     33 Energy:      -159.134176  Gnorm:      0.106873  CPU:    1.026
  ** Hessian calculated **
  Cycle:     34 Energy:      -159.200964  Gnorm:      0.016326  CPU:    1.099
  Cycle:     35 Energy:      -159.201416  Gnorm:      0.002147  CPU:    1.124
  Cycle:     36 Energy:      -159.201429  Gnorm:      0.000227  CPU:    1.149


  **** Optimisation achieved ****


  Final energy =    -159.20142964 eV      
  Final Gnorm  =       0.00004531

  Components of energy : 

--------------------------------------------------------------------------------
  Interatomic potentials     =          12.37885004 eV    
  Monopole - monopole (real) =         -68.43751828 eV    
  Monopole - monopole (recip)=        -103.14276141 eV    
  Monopole - monopole (total)=        -171.58027968 eV    
--------------------------------------------------------------------------------
  Total lattice energy       =        -159.20142964 eV    
--------------------------------------------------------------------------------
  Total lattice energy       =          -15360.5043 kJ/(mole unit cells)
--------------------------------------------------------------------------------

  Final fractional coordinates of atoms :

--------------------------------------------------------------------------------
   No.  Atomic        x           y          z          Radius
        Label       (Frac)      (Frac)     (Frac)       (Angs) 
--------------------------------------------------------------------------------
     1  Ti    c     0.284936    0.144677    0.595360    0.000000
     2  Ti    c     0.784936    0.144675    0.595361    0.000000
     3  Ti    c     0.784937    0.644674    0.095359    0.000000
     4  Ti    c     0.284938    0.644676    0.095359    0.000000
     5  O     c     0.481652    0.644675    0.398646    0.000000
     6  O     c     0.284936    0.341391    0.095362    0.000000
     7  O     c     0.784937    0.447960    0.595359    0.000000
     8  O     c     0.588221    0.144675    0.292076    0.000000
     9  O     c     0.284937    0.947961    0.095358    0.000000
    10  O     c     0.981650    0.144675    0.898647    0.000000
    11  O     c     0.088222    0.644675    0.792073    0.000000
    12  O     c     0.784937    0.841390    0.595359    0.000000
--------------------------------------------------------------------------------

  Final Cartesian lattice vectors (Angstroms) :

        6.814594    0.026634    1.727958
       -0.032143    6.353866    0.028793
        0.579749   -0.010448    2.952217


  Final cell parameters and derivatives :

--------------------------------------------------------------------------------
       a            7.030309 Angstrom     dE/de1(xx)     0.000529 eV/strain
       b            6.354012 Angstrom     dE/de2(yy)     0.000540 eV/strain
       c            3.008622 Angstrom     dE/de3(zz)     0.000362 eV/strain
       alpha       90.000058 Degrees      dE/de4(yz)    -0.000034 eV/strain
       beta        64.662519 Degrees      dE/de5(xz)    -0.000067 eV/strain
       gamma       90.000078 Degrees      dE/de6(xy)    -0.000053 eV/strain
--------------------------------------------------------------------------------

  Primitive cell volume =           121.468509 Angs**3

  Density of cell =      4.368078 g/cm**3

  Non-primitive cell volume =           121.468509 Angs**3


  Final internal derivatives :

--------------------------------------------------------------------------------
   No.  Atomic          a             b             c           Radius
        Label          (eV)          (eV)          (eV)        (eV/Angs)
--------------------------------------------------------------------------------
      1 Ti    c       0.000000      0.000000      0.000000      0.000000
      2 Ti    c       0.000550     -0.000029      0.000002      0.000000
      3 Ti    c      -0.000082     -0.000475     -0.000056      0.000000
      4 Ti    c       0.000061      0.000091     -0.000010      0.000000
      5 O     c       0.000448      0.000061      0.000137      0.000000
      6 O     c       0.000393      0.000075      0.000192      0.000000
      7 O     c      -0.000153      0.000063     -0.000012      0.000000
      8 O     c      -0.000608     -0.000088     -0.000011      0.000000
      9 O     c       0.000309     -0.000824     -0.000074      0.000000
     10 O     c      -0.000222     -0.000084      0.000094      0.000000
     11 O     c      -0.000200      0.000080     -0.000088      0.000000
     12 O     c      -0.000106      0.000350     -0.000037      0.000000
--------------------------------------------------------------------------------
  Maximum abs         0.000608      0.000824      0.000192      0.000000
--------------------------------------------------------------------------------


  Time to end of optimisation =       1.1738 seconds


  Peak dynamic memory used =       1.84 MB 


  Timing analysis for GULP :

--------------------------------------------------------------------------------
  Task / Subroutine                                          Time (Seconds)
--------------------------------------------------------------------------------
  Calculation of reciprocal space energy and derivatives          0.0560
  Calculation of real space energy and derivatives                1.0978
  Calculation and manipulation of Hessian matrix                  0.0005
  Calculation of matrix inversion                                 0.0010
  Global summation overhead                                       0.0002
--------------------------------------------------------------------------------
  Total CPU time                                                  1.1739
--------------------------------------------------------------------------------


  Job Finished at 11:03.42 29th May        2024                               

