********************************************************************************
*                       GENERAL UTILITY LATTICE PROGRAM                        *
*                                 Julian Gale                                  *
*                       Curtin Institute for Computation                       *
*                    School of Molecular and Life Sciences                     *
*                    Curtin University, Western Australia                      *
********************************************************************************
* Version = 6.0.0 * Last modified =  12th July 2021                            *
********************************************************************************
*  optimise     - perform optimisation run                                     *
*  conp         - constant pressure calculation                                *
*  conjugate    - use conjugate gradients minimiser                            *
********************************************************************************

  Job Started  at 11:03.48 29th May        2024                               

  Number of CPUs =     1


  Total number of configurations input =      1

********************************************************************************
*  Input for Configuration =   1                                               *
********************************************************************************

  Formula = Ti4O8                                                       

  Number of irreducible atoms/shells =      12


  Total number atoms/shells =      12

  Dimensionality = 3               :  Bulk   



  Cartesian lattice vectors (Angstroms) :

        4.076578    0.000000   -0.473453
        0.000000    7.561401    0.000000
        0.000000    0.000000    4.403873

  Cell parameters (Angstroms/Degrees):

  a =       4.1040    alpha =  90.0000
  b =       7.5614    beta  =  96.6246
  c =       4.4039    gamma =  90.0000

  Initial cell volume =         135.747820 Angs**3

  Temperature of configuration =   0.00     K 

  Pressure of configuration =         0.000 GPa 

  Fractional coordinates of asymmetric unit :

--------------------------------------------------------------------------------
   No.  Atomic       x           y          z         Charge      Occupancy
        Label      (Frac)      (Frac)     (Frac)        (e)         (Frac)  
--------------------------------------------------------------------------------
      1 Ti    c    0.738362    0.786055    0.124630     2.19600    1.000000    
      2 Ti    c    0.738362 *  0.213945 *  0.624630 *   2.19600    1.000000    
      3 Ti    c    0.057738 *  0.204327 *  0.980278 *   2.19600    1.000000    
      4 Ti    c    0.057738 *  0.795673 *  0.480278 *   2.19600    1.000000    
      5 O     c    0.151920 *  0.947960 *  0.756008 *  -1.09800    1.000000    
      6 O     c    0.151920 *  0.052040 *  0.256008 *  -1.09800    1.000000    
      7 O     c    0.824193 *  0.790161 *  0.759598 *  -1.09800    1.000000    
      8 O     c    0.824193 *  0.209839 *  0.259598 *  -1.09800    1.000000    
      9 O     c    0.409619 *  0.520806 *  0.997330 *  -1.09800    1.000000    
     10 O     c    0.409619 *  0.479194 *  0.497330 *  -1.09800    1.000000    
     11 O     c    0.014425 *  0.060279 *  0.771517 *  -1.09800    1.000000    
     12 O     c    0.014425 *  0.939721 *  0.271517 *  -1.09800    1.000000    
--------------------------------------------------------------------------------



********************************************************************************
*  General input information                                                   *
********************************************************************************

  Species output for all configurations : 

--------------------------------------------------------------------------------
  Species    Type    Atomic    Atomic    Charge       Radii (Angs)     Library
                     Number     Mass       (e)     Cova   Ionic  VDW   Symbol
--------------------------------------------------------------------------------
    Ti       Core       22      47.88   2.196000   1.470  0.000  2.190          
    O        Core        8      16.00  -1.098000   0.730  0.000  1.360          
--------------------------------------------------------------------------------


  Lattice summation method               =    Ewald          (3-D)
                                         =    Parry          (2-D)
                                         =    Saunders et al (1-D)
  Accuracy factor for lattice sums       =   12.000


  Analytic derivatives to be used

  Time limit = Infinity

  Maximum range for interatomic potentials =    100000.000000 Angstroms

  General interatomic potentials :

--------------------------------------------------------------------------------
Atom  Types   Potential      Parameter       Value         Units   Cutoffs(Ang)
  1     2                                                            Min /  Max 
--------------------------------------------------------------------------------
Ti   c Ti   c Buckingham    Buckingham A     31120.100    eV        0.000 15.000
                            Buckingham rho  0.15400000    Ang       
                            Buckingham C     5.2500000    eV*Ang^6  
--------------------------------------------------------------------------------
O    c O    c Buckingham    Buckingham A     11782.700    eV        0.000 15.000
                            Buckingham rho  0.23400000    Ang       
                            Buckingham C     30.220000    eV*Ang^6  
--------------------------------------------------------------------------------
O    c Ti   c Buckingham    Buckingham A     16957.500    eV        0.000 15.000
                            Buckingham rho  0.19400000    Ang       
                            Buckingham C     12.590000    eV*Ang^6  
--------------------------------------------------------------------------------
Ti   c Ti   c Lennard       Lennard-Jones A  1.0000000    eV*Ang^m  0.000 15.000
                            Lennard-Jones B  0.0000000    eV*Ang^n  
                            Exponent m        12          None
                            Exponent n         6          None
--------------------------------------------------------------------------------
O    c O    c Lennard       Lennard-Jones A  1.0000000    eV*Ang^m  0.000 15.000
                            Lennard-Jones B  0.0000000    eV*Ang^n  
                            Exponent m        12          None
                            Exponent n         6          None
--------------------------------------------------------------------------------
O    c Ti   c Lennard       Lennard-Jones A  1.0000000    eV*Ang^m  0.000 15.000
                            Lennard-Jones B  0.0000000    eV*Ang^n  
                            Exponent m        12          None
                            Exponent n         6          None
--------------------------------------------------------------------------------

********************************************************************************
*  Output for configuration   1                                                *
********************************************************************************


  Components of energy : 

--------------------------------------------------------------------------------
  Interatomic potentials     =         295.99250223 eV    
  Monopole - monopole (real) =         -38.49343021 eV    
  Monopole - monopole (recip)=         -96.97537181 eV    
  Monopole - monopole (total)=        -135.46880202 eV    
--------------------------------------------------------------------------------
  Total lattice energy       =         160.52370021 eV    
--------------------------------------------------------------------------------
  Total lattice energy       =           15488.0832 kJ/(mole unit cells)
--------------------------------------------------------------------------------


  Number of variables =       39

  Maximum number of calculations  =          1000
  Maximum Hessian update interval =            10
  Maximum step size               =   1.000000000
  Maximum parameter tolerance     =   0.000010000
  Maximum function  tolerance     =   0.000010000
  Maximum gradient  tolerance     =   0.001000000
  Maximum gradient  component     =   0.010000000

  Symmetry not applied to optimisation

  Cell parameters to be optimised using strains

  Conjugate gradient optimiser to be used

  Lower half triangular hessian to be used

  Minimiser to switch to BFGS with exact hessian
  When gradient norm is less than     0.500000

  Start of bulk optimisation :

  Cycle:      0 Energy:       160.523700  Gnorm:    165.556606  CPU:    0.022
  Cycle:      1 Energy:       -34.453798  Gnorm:     35.747430  CPU:    0.055
  Cycle:      2 Energy:       -81.635463  Gnorm:     21.994807  CPU:    0.093
  Cycle:      3 Energy:      -107.600771  Gnorm:      9.143350  CPU:    0.115
  Cycle:      4 Energy:      -124.561331  Gnorm:      4.747668  CPU:    0.150
  Cycle:      5 Energy:      -133.852384  Gnorm:      2.452961  CPU:    0.174
  Cycle:      6 Energy:      -140.364746  Gnorm:      2.154476  CPU:    0.195
  Cycle:      7 Energy:      -144.736203  Gnorm:      2.160634  CPU:    0.214
  Cycle:      8 Energy:      -146.562749  Gnorm:      1.582225  CPU:    0.230
  Cycle:      9 Energy:      -147.872892  Gnorm:      1.220502  CPU:    0.249
  Cycle:     10 Energy:      -148.536182  Gnorm:      0.947343  CPU:    0.265
  Cycle:     11 Energy:      -149.225415  Gnorm:      0.963404  CPU:    0.287
  Cycle:     12 Energy:      -149.693846  Gnorm:      0.763322  CPU:    0.307
  Cycle:     13 Energy:      -150.033542  Gnorm:      0.512757  CPU:    0.331
  Cycle:     14 Energy:      -150.214937  Gnorm:      0.439456  CPU:    0.355
  ** Hessian calculated **
  Cycle:     15 Energy:      -150.398394  Gnorm:      0.337662  CPU:    0.417
  ** Hessian calculated **
  Cycle:     16 Energy:      -150.509686  Gnorm:      0.216722  CPU:    0.465
  Cycle:     17 Energy:      -150.638328  Gnorm:      0.297969  CPU:    0.489
  Cycle:     18 Energy:      -150.766049  Gnorm:      0.310875  CPU:    0.514
  Cycle:     19 Energy:      -150.920373  Gnorm:      0.364168  CPU:    0.550
  Cycle:     20 Energy:      -151.197524  Gnorm:      0.547208  CPU:    0.591
  Cycle:     21 Energy:      -151.550288  Gnorm:      0.696724  CPU:    0.627
  Cycle:     22 Energy:      -151.833824  Gnorm:      0.530119  CPU:    0.661
  Cycle:     23 Energy:      -152.246240  Gnorm:      0.349132  CPU:    0.705
  Cycle:     24 Energy:      -152.443203  Gnorm:      0.302011  CPU:    0.741
  Cycle:     25 Energy:      -152.576619  Gnorm:      0.229812  CPU:    0.777
  ** Hessian calculated **
  Cycle:     26 Energy:      -152.648620  Gnorm:      0.182758  CPU:    0.851
  Cycle:     27 Energy:      -152.728298  Gnorm:      0.250966  CPU:    0.896
  Cycle:     28 Energy:      -152.864566  Gnorm:      0.321498  CPU:    0.942
  Cycle:     29 Energy:      -153.055945  Gnorm:      0.462442  CPU:    0.989
  Cycle:     30 Energy:      -153.288967  Gnorm:      0.520991  CPU:    1.037
  Cycle:     31 Energy:      -153.691718  Gnorm:      0.388818  CPU:    1.076
  Cycle:     32 Energy:      -153.903193  Gnorm:      0.377424  CPU:    1.116
  Cycle:     33 Energy:      -154.135483  Gnorm:      0.368547  CPU:    1.165
  Cycle:     34 Energy:      -154.479596  Gnorm:      0.484885  CPU:    1.215
  Cycle:     35 Energy:      -154.769186  Gnorm:      0.456909  CPU:    1.256
  ** Hessian calculated **
  Cycle:     36 Energy:      -155.599464  Gnorm:      0.558966  CPU:    1.365
  ** Hessian calculated **
  Cycle:     37 Energy:      -155.801311  Gnorm:      0.494659  CPU:    1.471
  ** Hessian calculated **
  Cycle:     38 Energy:      -156.123528  Gnorm:      0.397714  CPU:    1.557
  Cycle:     39 Energy:      -156.333380  Gnorm:      0.361295  CPU:    1.602
  Cycle:     40 Energy:      -156.494187  Gnorm:      0.256990  CPU:    1.643
  Cycle:     41 Energy:      -156.634053  Gnorm:      0.287288  CPU:    1.683
  Cycle:     42 Energy:      -156.826874  Gnorm:      0.385785  CPU:    1.724
  Cycle:     43 Energy:      -157.045161  Gnorm:      0.305138  CPU:    1.764
  Cycle:     44 Energy:      -157.262467  Gnorm:      0.290310  CPU:    1.797
  Cycle:     45 Energy:      -157.412474  Gnorm:      0.243018  CPU:    1.838
  Cycle:     46 Energy:      -157.511990  Gnorm:      0.197029  CPU:    1.871
  Cycle:     47 Energy:      -157.558215  Gnorm:      0.152484  CPU:    1.903
  ** Hessian calculated **
  Cycle:     48 Energy:      -157.580192  Gnorm:      0.095361  CPU:    1.988
  ** Hessian calculated **
  Cycle:     49 Energy:      -157.615872  Gnorm:      0.099752  CPU:    2.072
  Cycle:     50 Energy:      -157.713950  Gnorm:      0.219592  CPU:    2.127
  Cycle:     51 Energy:      -157.718630  Gnorm:      0.239986  CPU:    2.168
  ** Hessian calculated **
  Cycle:     52 Energy:      -157.909264  Gnorm:      0.243093  CPU:    2.259
  Cycle:     53 Energy:      -158.050798  Gnorm:      0.082957  CPU:    2.292
  Cycle:     54 Energy:      -158.066284  Gnorm:      0.037377  CPU:    2.325
  Cycle:     55 Energy:      -158.068905  Gnorm:      0.015462  CPU:    2.365
  Cycle:     56 Energy:      -158.069306  Gnorm:      0.006333  CPU:    2.398
  Cycle:     57 Energy:      -158.069355  Gnorm:      0.001523  CPU:    2.431


  **** Optimisation achieved ****


  Final energy =    -158.06936024 eV      
  Final Gnorm  =       0.00044927

  Components of energy : 

--------------------------------------------------------------------------------
  Interatomic potentials     =          11.93892118 eV    
  Monopole - monopole (real) =         -65.75571662 eV    
  Monopole - monopole (recip)=        -104.25256480 eV    
  Monopole - monopole (total)=        -170.00828142 eV    
--------------------------------------------------------------------------------
  Total lattice energy       =        -158.06936024 eV    
--------------------------------------------------------------------------------
  Total lattice energy       =          -15251.2770 kJ/(mole unit cells)
--------------------------------------------------------------------------------

  Final fractional coordinates of atoms :

--------------------------------------------------------------------------------
   No.  Atomic        x           y          z          Radius
        Label       (Frac)      (Frac)     (Frac)       (Angs) 
--------------------------------------------------------------------------------
     1  Ti    c     0.738362    0.786055    0.124630    0.000000
     2  Ti    c     0.488347    0.286062    0.374622    0.000000
     3  Ti    c     0.924758    0.158912    0.811048    0.000000
     4  Ti    c     0.174767    0.658905    0.561042    0.000000
     5  O     c     0.548336    0.886565    0.862134    0.000000
     6  O     c     0.114773    0.058402    0.073545    0.000000
     7  O     c     0.811769    0.558394    0.751051    0.000000
     8  O     c     0.851369    0.386594    0.184646    0.000000
     9  O     c     0.225856    0.386564    0.665131    0.000000
    10  O     c     0.437261    0.558406    0.270529    0.000000
    11  O     c     0.634254    0.058413    0.448058    0.000000
    12  O     c     0.028824    0.886560    0.487628    0.000000
--------------------------------------------------------------------------------

  Final Cartesian lattice vectors (Angstroms) :

        4.729304   -0.732768   -0.279134
       -1.614810    5.773538   -1.352514
        0.147615   -0.843846    4.716608


  Final cell parameters and derivatives :

--------------------------------------------------------------------------------
       a            4.793869 Angstrom     dE/de1(xx)    -0.000255 eV/strain
       b            6.145783 Angstrom     dE/de2(yy)    -0.003018 eV/strain
       c            4.793772 Angstrom     dE/de3(zz)    -0.003967 eV/strain
       alpha      112.953754 Degrees      dE/de4(yz)     0.000467 eV/strain
       beta        90.000255 Degrees      dE/de5(xz)    -0.000723 eV/strain
       gamma      112.954179 Degrees      dE/de6(xy)    -0.000190 eV/strain
--------------------------------------------------------------------------------

  Primitive cell volume =           117.811243 Angs**3

  Density of cell =      4.503678 g/cm**3

  Non-primitive cell volume =           117.811243 Angs**3


  Final internal derivatives :

--------------------------------------------------------------------------------
   No.  Atomic          a             b             c           Radius
        Label          (eV)          (eV)          (eV)        (eV/Angs)
--------------------------------------------------------------------------------
      1 Ti    c       0.000000      0.000000      0.000000      0.000000
      2 Ti    c       0.001871     -0.003928      0.001739      0.000000
      3 Ti    c      -0.001450     -0.000501     -0.002961      0.000000
      4 Ti    c      -0.001770     -0.002394     -0.003049      0.000000
      5 O     c      -0.002322     -0.000281     -0.001343      0.000000
      6 O     c       0.001321     -0.002382      0.000691      0.000000
      7 O     c       0.000406     -0.001675     -0.002424      0.000000
      8 O     c       0.003047      0.006908      0.006150      0.000000
      9 O     c       0.001082      0.001638      0.000365      0.000000
     10 O     c      -0.001449      0.003956     -0.003058      0.000000
     11 O     c      -0.001606      0.004706      0.000876      0.000000
     12 O     c      -0.006455      0.002121     -0.002916      0.000000
--------------------------------------------------------------------------------
  Maximum abs         0.006455      0.006908      0.006150      0.000000
--------------------------------------------------------------------------------


  Time to end of optimisation =       2.4637 seconds


  Peak dynamic memory used =       1.84 MB 


  Timing analysis for GULP :

--------------------------------------------------------------------------------
  Task / Subroutine                                          Time (Seconds)
--------------------------------------------------------------------------------
  Calculation of reciprocal space energy and derivatives          0.0903
  Calculation of real space energy and derivatives                2.3500
  Calculation and manipulation of Hessian matrix                  0.0010
  Calculation of matrix inversion                                 0.0017
  Global summation overhead                                       0.0004
--------------------------------------------------------------------------------
  Total CPU time                                                  2.4638
--------------------------------------------------------------------------------


  Job Finished at 11:03.51 29th May        2024                               

