********************************************************************************
*                       GENERAL UTILITY LATTICE PROGRAM                        *
*                                 Julian Gale                                  *
*                       Curtin Institute for Computation                       *
*                    School of Molecular and Life Sciences                     *
*                    Curtin University, Western Australia                      *
********************************************************************************
* Version = 6.0.0 * Last modified =  12th July 2021                            *
********************************************************************************
*  optimise     - perform optimisation run                                     *
*  conp         - constant pressure calculation                                *
*  conjugate    - use conjugate gradients minimiser                            *
********************************************************************************

  Job Started  at 11:04.00 29th May        2024                               

  Number of CPUs =     1


  Total number of configurations input =      1

********************************************************************************
*  Input for Configuration =   1                                               *
********************************************************************************

  Formula = Ti4O8                                                       

  Number of irreducible atoms/shells =      12


  Total number atoms/shells =      12

  Dimensionality = 3               :  Bulk   



  Cartesian lattice vectors (Angstroms) :

        6.236256    0.000000    0.000000
        0.000000    3.683488    0.000000
        0.000000    0.000000    8.856937

  Cell parameters (Angstroms/Degrees):

  a =       6.2363    alpha =  90.0000
  b =       3.6835    beta  =  90.0000
  c =       8.8569    gamma =  90.0000

  Initial cell volume =         203.454249 Angs**3

  Temperature of configuration =   0.00     K 

  Pressure of configuration =         0.000 GPa 

  Fractional coordinates of asymmetric unit :

--------------------------------------------------------------------------------
   No.  Atomic       x           y          z         Charge      Occupancy
        Label      (Frac)      (Frac)     (Frac)        (e)         (Frac)  
--------------------------------------------------------------------------------
      1 Ti    c    0.718769    0.353836    0.726618     2.19600    1.000000    
      2 Ti    c    0.281231 *  0.646164 *  0.226618 *   2.19600    1.000000    
      3 Ti    c    0.281231 *  0.353836 *  0.773382 *   2.19600    1.000000    
      4 Ti    c    0.718769 *  0.646164 *  0.273382 *   2.19600    1.000000    
      5 O     c    0.467725 *  0.187013 *  0.515836 *  -1.09800    1.000000    
      6 O     c    0.532275 *  0.812987 *  0.015836 *  -1.09800    1.000000    
      7 O     c    0.532275 *  0.187013 *  0.984164 *  -1.09800    1.000000    
      8 O     c    0.467725 *  0.812987 *  0.484164 *  -1.09800    1.000000    
      9 O     c    0.853400 *  0.500000 *  0.000000 *  -1.09800    1.000000    
     10 O     c    0.146600 *  0.500000 *  0.500000 *  -1.09800    1.000000    
     11 O     c    0.397483 *  0.000000 *  0.000000 *  -1.09800    1.000000    
     12 O     c    0.602517 *  0.000000 *  0.500000 *  -1.09800    1.000000    
--------------------------------------------------------------------------------



********************************************************************************
*  General input information                                                   *
********************************************************************************

  Species output for all configurations : 

--------------------------------------------------------------------------------
  Species    Type    Atomic    Atomic    Charge       Radii (Angs)     Library
                     Number     Mass       (e)     Cova   Ionic  VDW   Symbol
--------------------------------------------------------------------------------
    Ti       Core       22      47.88   2.196000   1.470  0.000  2.190          
    O        Core        8      16.00  -1.098000   0.730  0.000  1.360          
--------------------------------------------------------------------------------


  Lattice summation method               =    Ewald          (3-D)
                                         =    Parry          (2-D)
                                         =    Saunders et al (1-D)
  Accuracy factor for lattice sums       =   12.000


  Analytic derivatives to be used

  Time limit = Infinity

  Maximum range for interatomic potentials =    100000.000000 Angstroms

  General interatomic potentials :

--------------------------------------------------------------------------------
Atom  Types   Potential      Parameter       Value         Units   Cutoffs(Ang)
  1     2                                                            Min /  Max 
--------------------------------------------------------------------------------
Ti   c Ti   c Buckingham    Buckingham A     31120.100    eV        0.000 15.000
                            Buckingham rho  0.15400000    Ang       
                            Buckingham C     5.2500000    eV*Ang^6  
--------------------------------------------------------------------------------
O    c O    c Buckingham    Buckingham A     11782.700    eV        0.000 15.000
                            Buckingham rho  0.23400000    Ang       
                            Buckingham C     30.220000    eV*Ang^6  
--------------------------------------------------------------------------------
O    c Ti   c Buckingham    Buckingham A     16957.500    eV        0.000 15.000
                            Buckingham rho  0.19400000    Ang       
                            Buckingham C     12.590000    eV*Ang^6  
--------------------------------------------------------------------------------
Ti   c Ti   c Lennard       Lennard-Jones A  1.0000000    eV*Ang^m  0.000 15.000
                            Lennard-Jones B  0.0000000    eV*Ang^n  
                            Exponent m        12          None
                            Exponent n         6          None
--------------------------------------------------------------------------------
O    c O    c Lennard       Lennard-Jones A  1.0000000    eV*Ang^m  0.000 15.000
                            Lennard-Jones B  0.0000000    eV*Ang^n  
                            Exponent m        12          None
                            Exponent n         6          None
--------------------------------------------------------------------------------
O    c Ti   c Lennard       Lennard-Jones A  1.0000000    eV*Ang^m  0.000 15.000
                            Lennard-Jones B  0.0000000    eV*Ang^n  
                            Exponent m        12          None
                            Exponent n         6          None
--------------------------------------------------------------------------------

********************************************************************************
*  Output for configuration   1                                                *
********************************************************************************


  Components of energy : 

--------------------------------------------------------------------------------
  Interatomic potentials     =         418.84070085 eV    
  Monopole - monopole (real) =          14.40951649 eV    
  Monopole - monopole (recip)=         -81.82279924 eV    
  Monopole - monopole (total)=         -67.41328275 eV    
--------------------------------------------------------------------------------
  Total lattice energy       =         351.42741810 eV    
--------------------------------------------------------------------------------
  Total lattice energy       =           33907.3738 kJ/(mole unit cells)
--------------------------------------------------------------------------------


  Number of variables =       39

  Maximum number of calculations  =          1000
  Maximum Hessian update interval =            10
  Maximum step size               =   1.000000000
  Maximum parameter tolerance     =   0.000010000
  Maximum function  tolerance     =   0.000010000
  Maximum gradient  tolerance     =   0.001000000
  Maximum gradient  component     =   0.010000000

  Symmetry not applied to optimisation

  Cell parameters to be optimised using strains

  Conjugate gradient optimiser to be used

  Lower half triangular hessian to be used

  Minimiser to switch to BFGS with exact hessian
  When gradient norm is less than     0.500000

  Start of bulk optimisation :

  Cycle:      0 Energy:       351.427418  Gnorm:    184.216444  CPU:    0.020
  Cycle:      1 Energy:       -87.004446  Gnorm:     10.168087  CPU:    0.051
  Cycle:      2 Energy:      -127.490796  Gnorm:      3.053106  CPU:    0.065
  Cycle:      3 Energy:      -130.286087  Gnorm:      1.952852  CPU:    0.079
  Cycle:      4 Energy:      -133.193923  Gnorm:      1.962066  CPU:    0.100
  Cycle:      5 Energy:      -135.414785  Gnorm:      1.510212  CPU:    0.119
  Cycle:      6 Energy:      -136.736472  Gnorm:      1.398487  CPU:    0.138
  Cycle:      7 Energy:      -137.900504  Gnorm:      1.540459  CPU:    0.156
  Cycle:      8 Energy:      -138.512226  Gnorm:      1.929011  CPU:    0.173
  Cycle:      9 Energy:      -139.722228  Gnorm:      1.331091  CPU:    0.191
  Cycle:     10 Energy:      -140.712589  Gnorm:      1.377827  CPU:    0.212
  Cycle:     11 Energy:      -142.223252  Gnorm:      1.031390  CPU:    0.233
  Cycle:     12 Energy:      -143.794231  Gnorm:      1.290790  CPU:    0.255
  Cycle:     13 Energy:      -145.928166  Gnorm:      1.316510  CPU:    0.276
  Cycle:     14 Energy:      -147.215501  Gnorm:      1.231294  CPU:    0.293
  Cycle:     15 Energy:      -148.610498  Gnorm:      0.982417  CPU:    0.314
  Cycle:     16 Energy:      -149.727362  Gnorm:      0.939343  CPU:    0.335
  Cycle:     17 Energy:      -150.440677  Gnorm:      0.770017  CPU:    0.353
  Cycle:     18 Energy:      -151.022561  Gnorm:      0.628252  CPU:    0.377
  Cycle:     19 Energy:      -151.673216  Gnorm:      0.554209  CPU:    0.401
  Cycle:     20 Energy:      -151.876468  Gnorm:      0.337210  CPU:    0.423
  ** Hessian calculated **
  Cycle:     21 Energy:      -152.179094  Gnorm:      0.297623  CPU:    0.492
  ** Hessian calculated **
  Cycle:     22 Energy:      -152.920745  Gnorm:      0.548622  CPU:    0.564
  ** Hessian calculated **
  Cycle:     23 Energy:      -153.203502  Gnorm:      0.232409  CPU:    0.622
  Cycle:     24 Energy:      -153.214593  Gnorm:      0.161508  CPU:    0.646
  ** Hessian calculated **
  Cycle:     25 Energy:      -153.251091  Gnorm:      0.133458  CPU:    0.697
  Cycle:     26 Energy:      -153.292337  Gnorm:      0.147754  CPU:    0.723
  Cycle:     27 Energy:      -153.380537  Gnorm:      0.222061  CPU:    0.757
  Cycle:     28 Energy:      -153.464941  Gnorm:      0.251053  CPU:    0.796
  Cycle:     29 Energy:      -153.549822  Gnorm:      0.264323  CPU:    0.837
  Cycle:     30 Energy:      -153.715020  Gnorm:      0.413916  CPU:    0.881
  Cycle:     31 Energy:      -154.002654  Gnorm:      0.559818  CPU:    0.919
  Cycle:     32 Energy:      -154.212687  Gnorm:      0.539987  CPU:    0.949
  Cycle:     33 Energy:      -154.551194  Gnorm:      0.466981  CPU:    0.985
  Cycle:     34 Energy:      -154.786749  Gnorm:      0.337235  CPU:    1.016
  ** Hessian calculated **
  Cycle:     35 Energy:      -154.901009  Gnorm:      0.222842  CPU:    1.084
  Cycle:     36 Energy:      -155.040594  Gnorm:      0.241683  CPU:    1.122
  Cycle:     37 Energy:      -155.163260  Gnorm:      0.233390  CPU:    1.167
  Cycle:     38 Energy:      -155.295922  Gnorm:      0.244134  CPU:    1.212
  Cycle:     39 Energy:      -155.423467  Gnorm:      0.226062  CPU:    1.259
  Cycle:     40 Energy:      -155.598741  Gnorm:      0.239970  CPU:    1.295
  Cycle:     41 Energy:      -155.736685  Gnorm:      0.281701  CPU:    1.324
  Cycle:     42 Energy:      -155.939255  Gnorm:      0.268018  CPU:    1.360
  Cycle:     43 Energy:      -156.133886  Gnorm:      0.329013  CPU:    1.398
  Cycle:     44 Energy:      -156.316892  Gnorm:      0.360488  CPU:    1.434
  ** Hessian calculated **
  Cycle:     45 Energy:      -156.508028  Gnorm:      0.207490  CPU:    1.505
  Cycle:     46 Energy:      -156.648107  Gnorm:      0.256580  CPU:    1.538
  Cycle:     47 Energy:      -156.923852  Gnorm:      0.436708  CPU:    1.574
  Cycle:     48 Energy:      -157.368328  Gnorm:      0.468964  CPU:    1.619
  Cycle:     49 Energy:      -157.628591  Gnorm:      0.319072  CPU:    1.645
  Cycle:     50 Energy:      -157.803316  Gnorm:      0.228937  CPU:    1.671
  Cycle:     51 Energy:      -157.946450  Gnorm:      0.194035  CPU:    1.705
  Cycle:     52 Energy:      -158.033912  Gnorm:      0.225707  CPU:    1.736
  Cycle:     53 Energy:      -158.162835  Gnorm:      0.244241  CPU:    1.768
  Cycle:     54 Energy:      -158.357269  Gnorm:      0.280413  CPU:    1.796
  ** Hessian calculated **
  Cycle:     55 Energy:      -158.500714  Gnorm:      0.205187  CPU:    1.864
  Cycle:     56 Energy:      -158.600635  Gnorm:      0.175478  CPU:    1.891
  Cycle:     57 Energy:      -158.720144  Gnorm:      0.206183  CPU:    1.918
  Cycle:     58 Energy:      -158.869038  Gnorm:      0.214449  CPU:    1.946
  Cycle:     59 Energy:      -158.960410  Gnorm:      0.137244  CPU:    1.968
  Cycle:     60 Energy:      -158.990455  Gnorm:      0.099824  CPU:    1.990
  Cycle:     61 Energy:      -159.015008  Gnorm:      0.086946  CPU:    2.017
  Cycle:     62 Energy:      -159.032470  Gnorm:      0.079561  CPU:    2.039
  Cycle:     63 Energy:      -159.046886  Gnorm:      0.050415  CPU:    2.062
  Cycle:     64 Energy:      -159.052715  Gnorm:      0.039391  CPU:    2.084
  ** Hessian calculated **
  Cycle:     65 Energy:      -159.060902  Gnorm:      0.001613  CPU:    2.151


  **** Optimisation achieved ****


  Final energy =    -159.06090977 eV      
  Final Gnorm  =       0.00009991

  Components of energy : 

--------------------------------------------------------------------------------
  Interatomic potentials     =          12.29020074 eV    
  Monopole - monopole (real) =         -67.80782805 eV    
  Monopole - monopole (recip)=        -103.54328246 eV    
  Monopole - monopole (total)=        -171.35111051 eV    
--------------------------------------------------------------------------------
  Total lattice energy       =        -159.06090977 eV    
--------------------------------------------------------------------------------
  Total lattice energy       =          -15346.9463 kJ/(mole unit cells)
--------------------------------------------------------------------------------

  Final fractional coordinates of atoms :

--------------------------------------------------------------------------------
   No.  Atomic        x           y          z          Radius
        Label       (Frac)      (Frac)     (Frac)       (Angs) 
--------------------------------------------------------------------------------
     1  Ti    c     0.718769    0.353836    0.726618    0.000000
     2  Ti    c     0.218765    0.528782    0.226620    0.000000
     3  Ti    c     0.218767    0.028781    0.726617    0.000000
     4  Ti    c     0.718768    0.853837    0.226617    0.000000
     5  O     c     0.386221    0.305213    0.500657    0.000000
     6  O     c     0.551315    0.577406    0.000657    0.000000
     7  O     c     0.551317    0.077406    0.952580    0.000000
     8  O     c     0.386218    0.805214    0.452580    0.000000
     9  O     c     0.051314    0.305203    0.952588    0.000000
    10  O     c     0.886220    0.577417    0.452588    0.000000
    11  O     c     0.051313    0.805204    0.000648    0.000000
    12  O     c     0.886221    0.077415    0.500648    0.000000
--------------------------------------------------------------------------------

  Final Cartesian lattice vectors (Angstroms) :

        4.935399    0.017465    0.044901
       -0.019898    5.378377    0.091083
       -0.040868   -0.076718    4.521419


  Final cell parameters and derivatives :

--------------------------------------------------------------------------------
       a            4.935635 Angstrom     dE/de1(xx)    -0.001044 eV/strain
       b            5.379185 Angstrom     dE/de2(yy)    -0.001416 eV/strain
       c            4.522254 Angstrom     dE/de3(zz)     0.000099 eV/strain
       alpha       89.999956 Degrees      dE/de4(yz)     0.000106 eV/strain
       beta        90.000058 Degrees      dE/de5(xz)    -0.000175 eV/strain
       gamma       90.000394 Degrees      dE/de6(xy)    -0.000013 eV/strain
--------------------------------------------------------------------------------

  Primitive cell volume =           120.064463 Angs**3

  Density of cell =      4.419158 g/cm**3

  Non-primitive cell volume =           120.064463 Angs**3


  Final internal derivatives :

--------------------------------------------------------------------------------
   No.  Atomic          a             b             c           Radius
        Label          (eV)          (eV)          (eV)        (eV/Angs)
--------------------------------------------------------------------------------
      1 Ti    c       0.000000      0.000000      0.000000      0.000000
      2 Ti    c      -0.000280      0.000071      0.000139      0.000000
      3 Ti    c       0.000323     -0.001367     -0.000484      0.000000
      4 Ti    c       0.000216      0.000318     -0.000334      0.000000
      5 O     c       0.000974      0.000420      0.001243      0.000000
      6 O     c      -0.000156     -0.000233      0.000992      0.000000
      7 O     c       0.000314     -0.000399     -0.000553      0.000000
      8 O     c      -0.000418      0.001089     -0.000141      0.000000
      9 O     c      -0.000168     -0.000880     -0.000544      0.000000
     10 O     c      -0.000338      0.001222     -0.000553      0.000000
     11 O     c      -0.000412      0.000065      0.000413      0.000000
     12 O     c       0.000009      0.000256      0.000606      0.000000
--------------------------------------------------------------------------------
  Maximum abs         0.000974      0.001367      0.001243      0.000000
--------------------------------------------------------------------------------


  Time to end of optimisation =       2.1752 seconds


  Peak dynamic memory used =       1.84 MB 


  Timing analysis for GULP :

--------------------------------------------------------------------------------
  Task / Subroutine                                          Time (Seconds)
--------------------------------------------------------------------------------
  Calculation of reciprocal space energy and derivatives          0.0978
  Calculation of real space energy and derivatives                2.0530
  Calculation and manipulation of Hessian matrix                  0.0009
  Calculation of matrix inversion                                 0.0015
  Global summation overhead                                       0.0004
--------------------------------------------------------------------------------
  Total CPU time                                                  2.1752
--------------------------------------------------------------------------------


  Job Finished at 11:04.02 29th May        2024                               

