********************************************************************************
*                       GENERAL UTILITY LATTICE PROGRAM                        *
*                                 Julian Gale                                  *
*                       Curtin Institute for Computation                       *
*                    School of Molecular and Life Sciences                     *
*                    Curtin University, Western Australia                      *
********************************************************************************
* Version = 6.0.0 * Last modified =  12th July 2021                            *
********************************************************************************
*  optimise     - perform optimisation run                                     *
*  conp         - constant pressure calculation                                *
*  conjugate    - use conjugate gradients minimiser                            *
********************************************************************************

  Job Started  at 11:03.53 29th May        2024                               

  Number of CPUs =     1


  Total number of configurations input =      1

********************************************************************************
*  Input for Configuration =   1                                               *
********************************************************************************

  Formula = Ti4O8                                                       

  Number of irreducible atoms/shells =      12


  Total number atoms/shells =      12

  Dimensionality = 3               :  Bulk   



  Cartesian lattice vectors (Angstroms) :

        9.541852    0.000000    2.779718
        0.000000    5.411035    0.000000
        0.000000    0.000000    4.743748

  Cell parameters (Angstroms/Degrees):

  a =       9.9385    alpha =  90.0000
  b =       5.4110    beta  =  73.7582
  c =       4.7437    gamma =  90.0000

  Initial cell volume =         244.925863 Angs**3

  Temperature of configuration =   0.00     K 

  Pressure of configuration =         0.000 GPa 

  Fractional coordinates of asymmetric unit :

--------------------------------------------------------------------------------
   No.  Atomic       x           y          z         Charge      Occupancy
        Label      (Frac)      (Frac)     (Frac)        (e)         (Frac)  
--------------------------------------------------------------------------------
      1 Ti    c    0.000000    0.500000    0.500000     2.19600    1.000000    
      2 Ti    c    0.000000 *  0.000000 *  0.000000 *   2.19600    1.000000    
      3 Ti    c    0.000000 *  0.500000 *  0.000000 *   2.19600    1.000000    
      4 Ti    c    0.500000 *  0.000000 *  0.500000 *   2.19600    1.000000    
      5 O     c    0.358789 *  0.822514 *  0.800876 *  -1.09800    1.000000    
      6 O     c    0.641211 *  0.822514 *  0.199124 *  -1.09800    1.000000    
      7 O     c    0.641211 *  0.177486 *  0.199124 *  -1.09800    1.000000    
      8 O     c    0.358789 *  0.177486 *  0.800876 *  -1.09800    1.000000    
      9 O     c    0.699379 *  0.500000 *  0.121022 *  -1.09800    1.000000    
     10 O     c    0.300621 *  0.500000 *  0.878978 *  -1.09800    1.000000    
     11 O     c    0.000000 *  0.836998 *  0.500000 *  -1.09800    1.000000    
     12 O     c    0.000000 *  0.163002 *  0.500000 *  -1.09800    1.000000    
--------------------------------------------------------------------------------



********************************************************************************
*  General input information                                                   *
********************************************************************************

  Species output for all configurations : 

--------------------------------------------------------------------------------
  Species    Type    Atomic    Atomic    Charge       Radii (Angs)     Library
                     Number     Mass       (e)     Cova   Ionic  VDW   Symbol
--------------------------------------------------------------------------------
    Ti       Core       22      47.88   2.196000   1.470  0.000  2.190          
    O        Core        8      16.00  -1.098000   0.730  0.000  1.360          
--------------------------------------------------------------------------------


  Lattice summation method               =    Ewald          (3-D)
                                         =    Parry          (2-D)
                                         =    Saunders et al (1-D)
  Accuracy factor for lattice sums       =   12.000


  Analytic derivatives to be used

  Time limit = Infinity

  Maximum range for interatomic potentials =    100000.000000 Angstroms

  General interatomic potentials :

--------------------------------------------------------------------------------
Atom  Types   Potential      Parameter       Value         Units   Cutoffs(Ang)
  1     2                                                            Min /  Max 
--------------------------------------------------------------------------------
Ti   c Ti   c Buckingham    Buckingham A     31120.100    eV        0.000 15.000
                            Buckingham rho  0.15400000    Ang       
                            Buckingham C     5.2500000    eV*Ang^6  
--------------------------------------------------------------------------------
O    c O    c Buckingham    Buckingham A     11782.700    eV        0.000 15.000
                            Buckingham rho  0.23400000    Ang       
                            Buckingham C     30.220000    eV*Ang^6  
--------------------------------------------------------------------------------
O    c Ti   c Buckingham    Buckingham A     16957.500    eV        0.000 15.000
                            Buckingham rho  0.19400000    Ang       
                            Buckingham C     12.590000    eV*Ang^6  
--------------------------------------------------------------------------------
Ti   c Ti   c Lennard       Lennard-Jones A  1.0000000    eV*Ang^m  0.000 15.000
                            Lennard-Jones B  0.0000000    eV*Ang^n  
                            Exponent m        12          None
                            Exponent n         6          None
--------------------------------------------------------------------------------
O    c O    c Lennard       Lennard-Jones A  1.0000000    eV*Ang^m  0.000 15.000
                            Lennard-Jones B  0.0000000    eV*Ang^n  
                            Exponent m        12          None
                            Exponent n         6          None
--------------------------------------------------------------------------------
O    c Ti   c Lennard       Lennard-Jones A  1.0000000    eV*Ang^m  0.000 15.000
                            Lennard-Jones B  0.0000000    eV*Ang^n  
                            Exponent m        12          None
                            Exponent n         6          None
--------------------------------------------------------------------------------

********************************************************************************
*  Output for configuration   1                                                *
********************************************************************************


  Components of energy : 

--------------------------------------------------------------------------------
  Interatomic potentials     =          28.50623963 eV    
  Monopole - monopole (real) =         -14.18047539 eV    
  Monopole - monopole (recip)=         -57.65540115 eV    
  Monopole - monopole (total)=         -71.83587654 eV    
--------------------------------------------------------------------------------
  Total lattice energy       =         -43.32963691 eV    
--------------------------------------------------------------------------------
  Total lattice energy       =           -4180.6476 kJ/(mole unit cells)
--------------------------------------------------------------------------------


  Number of variables =       39

  Maximum number of calculations  =          1000
  Maximum Hessian update interval =            10
  Maximum step size               =   1.000000000
  Maximum parameter tolerance     =   0.000010000
  Maximum function  tolerance     =   0.000010000
  Maximum gradient  tolerance     =   0.001000000
  Maximum gradient  component     =   0.010000000

  Symmetry not applied to optimisation

  Cell parameters to be optimised using strains

  Conjugate gradient optimiser to be used

  Lower half triangular hessian to be used

  Minimiser to switch to BFGS with exact hessian
  When gradient norm is less than     0.500000

  Start of bulk optimisation :

  Cycle:      0 Energy:       -43.329637  Gnorm:     12.012362  CPU:    0.018
  Cycle:      1 Energy:      -102.683845  Gnorm:      6.023547  CPU:    0.044
  Cycle:      2 Energy:      -109.057111  Gnorm:      3.459536  CPU:    0.062
  Cycle:      3 Energy:      -110.683827  Gnorm:      1.445634  CPU:    0.078
  Cycle:      4 Energy:      -114.070372  Gnorm:      4.119621  CPU:    0.100
  Cycle:      5 Energy:      -121.440625  Gnorm:      3.530580  CPU:    0.123
  Cycle:      6 Energy:      -130.361494  Gnorm:      2.172404  CPU:    0.143
  Cycle:      7 Energy:      -132.760608  Gnorm:      1.744451  CPU:    0.159
  Cycle:      8 Energy:      -134.166202  Gnorm:      1.469865  CPU:    0.180
  Cycle:      9 Energy:      -136.108446  Gnorm:      1.500012  CPU:    0.200
  Cycle:     10 Energy:      -137.141487  Gnorm:      0.699966  CPU:    0.218
  Cycle:     11 Energy:      -139.522530  Gnorm:      0.824985  CPU:    0.248
  Cycle:     12 Energy:      -140.938182  Gnorm:      1.601750  CPU:    0.266
  Cycle:     13 Energy:      -142.569829  Gnorm:      1.021263  CPU:    0.289
  Cycle:     14 Energy:      -143.552392  Gnorm:      0.833118  CPU:    0.308
  Cycle:     15 Energy:      -144.139996  Gnorm:      0.753364  CPU:    0.330
  Cycle:     16 Energy:      -144.463601  Gnorm:      0.376960  CPU:    0.348
  ** Hessian calculated **
  Cycle:     17 Energy:      -144.635400  Gnorm:      0.278158  CPU:    0.394
  Cycle:     18 Energy:      -144.841811  Gnorm:      0.605999  CPU:    0.417
  Cycle:     19 Energy:      -145.396788  Gnorm:      0.541932  CPU:    0.445
  Cycle:     20 Energy:      -146.228376  Gnorm:      1.164884  CPU:    0.471
  Cycle:     21 Energy:      -148.449591  Gnorm:      0.587438  CPU:    0.494
  Cycle:     22 Energy:      -148.794493  Gnorm:      0.396709  CPU:    0.524
  Cycle:     23 Energy:      -148.905223  Gnorm:      0.221442  CPU:    0.548
  Cycle:     24 Energy:      -149.000026  Gnorm:      0.363744  CPU:    0.578
  Cycle:     25 Energy:      -149.010424  Gnorm:      0.384598  CPU:    0.603
  Cycle:     26 Energy:      -149.053222  Gnorm:      0.350764  CPU:    0.633
  ** Hessian calculated **
  Cycle:     27 Energy:      -149.364714  Gnorm:      0.239269  CPU:    0.695
  Cycle:     28 Energy:      -149.444369  Gnorm:      0.128813  CPU:    0.720
  Cycle:     29 Energy:      -149.456050  Gnorm:      0.042943  CPU:    0.745
  Cycle:     30 Energy:      -149.459275  Gnorm:      0.012154  CPU:    0.770
  Cycle:     31 Energy:      -149.459574  Gnorm:      0.002682  CPU:    0.800


  **** Optimisation achieved ****


  Final energy =    -149.45958254 eV      
  Final Gnorm  =       0.00025264

  Components of energy : 

--------------------------------------------------------------------------------
  Interatomic potentials     =          12.28247659 eV    
  Monopole - monopole (real) =         -62.34212760 eV    
  Monopole - monopole (recip)=         -99.39993153 eV    
  Monopole - monopole (total)=        -161.74205913 eV    
--------------------------------------------------------------------------------
  Total lattice energy       =        -149.45958254 eV    
--------------------------------------------------------------------------------
  Total lattice energy       =          -14420.5650 kJ/(mole unit cells)
--------------------------------------------------------------------------------

  Final fractional coordinates of atoms :

--------------------------------------------------------------------------------
   No.  Atomic        x           y          z          Radius
        Label       (Frac)      (Frac)     (Frac)       (Angs) 
--------------------------------------------------------------------------------
     1  Ti    c     0.000000    0.500000    0.500000    0.000000
     2  Ti    c     0.000019    0.999998    0.999999    0.000000
     3  Ti    c     0.000020    0.499995    0.999998    0.000000
     4  Ti    c     0.500010    0.999997    0.499995    0.000000
     5  O     c     0.257993    0.791189    0.793688    0.000000
     6  O     c     0.742043    0.791193    0.206314    0.000000
     7  O     c     0.742046    0.208809    0.206309    0.000000
     8  O     c     0.257991    0.208812    0.793692    0.000000
     9  O     c     0.754720    0.500000    0.806809    0.000000
    10  O     c     0.245321    0.500000    0.193187    0.000000
    11  O     c     0.000018    0.808012    0.499999    0.000000
    12  O     c     0.000018    0.191988    0.499999    0.000000
--------------------------------------------------------------------------------

  Final Cartesian lattice vectors (Angstroms) :

        2.631002    0.000000    2.543463
        0.000000    6.078929    0.000000
       -2.085481   -0.000000    6.403776


  Final cell parameters and derivatives :

--------------------------------------------------------------------------------
       a            3.659423 Angstrom     dE/de1(xx)     0.001137 eV/strain
       b            6.078929 Angstrom     dE/de2(yy)    -0.000114 eV/strain
       c            6.734804 Angstrom     dE/de3(zz)    -0.003492 eV/strain
       alpha       90.000000 Degrees      dE/de4(yz)    -0.000000 eV/strain
       beta        64.007784 Degrees      dE/de5(xz)     0.001752 eV/strain
       gamma       90.000000 Degrees      dE/de6(xy)     0.000000 eV/strain
--------------------------------------------------------------------------------

  Primitive cell volume =           134.664646 Angs**3

  Density of cell =      3.940038 g/cm**3

  Non-primitive cell volume =           134.664646 Angs**3


  Final internal derivatives :

--------------------------------------------------------------------------------
   No.  Atomic          a             b             c           Radius
        Label          (eV)          (eV)          (eV)        (eV/Angs)
--------------------------------------------------------------------------------
      1 Ti    c       0.000000      0.000000      0.000000      0.000000
      2 Ti    c      -0.000058      0.000003     -0.000153      0.000000
      3 Ti    c      -0.000059     -0.000395      0.000195      0.000000
      4 Ti    c      -0.000033     -0.000115     -0.000841      0.000000
      5 O     c       0.001747      0.000150     -0.002260      0.000000
      6 O     c      -0.001360      0.000393      0.003167      0.000000
      7 O     c      -0.001476     -0.000248      0.002810      0.000000
      8 O     c       0.001863     -0.000005     -0.001903      0.000000
      9 O     c      -0.002782      0.000134     -0.003584      0.000000
     10 O     c       0.003031      0.000134      0.001741      0.000000
     11 O     c      -0.000284     -0.002109     -0.000391      0.000000
     12 O     c      -0.000284      0.002087     -0.000391      0.000000
--------------------------------------------------------------------------------
  Maximum abs         0.003031      0.002109      0.003584      0.000000
--------------------------------------------------------------------------------


  Time to end of optimisation =       0.8259 seconds


  Peak dynamic memory used =       1.84 MB 


  Timing analysis for GULP :

--------------------------------------------------------------------------------
  Task / Subroutine                                          Time (Seconds)
--------------------------------------------------------------------------------
  Calculation of reciprocal space energy and derivatives          0.0383
  Calculation of real space energy and derivatives                0.7720
  Calculation and manipulation of Hessian matrix                  0.0002
  Calculation of matrix inversion                                 0.0004
  Global summation overhead                                       0.0002
--------------------------------------------------------------------------------
  Total CPU time                                                  0.8259
--------------------------------------------------------------------------------


  Job Finished at 11:03.54 29th May        2024                               

