********************************************************************************
*                       GENERAL UTILITY LATTICE PROGRAM                        *
*                                 Julian Gale                                  *
*                       Curtin Institute for Computation                       *
*                    School of Molecular and Life Sciences                     *
*                    Curtin University, Western Australia                      *
********************************************************************************
* Version = 6.0.0 * Last modified =  12th July 2021                            *
********************************************************************************
*  optimise     - perform optimisation run                                     *
*  conp         - constant pressure calculation                                *
*  conjugate    - use conjugate gradients minimiser                            *
********************************************************************************

  Job Started  at 11:04.02 29th May        2024                               

  Number of CPUs =     1


  Total number of configurations input =      1

********************************************************************************
*  Input for Configuration =   1                                               *
********************************************************************************

  Formula = Ti4O8                                                       

  Number of irreducible atoms/shells =      12


  Total number atoms/shells =      12

  Dimensionality = 3               :  Bulk   



  Cartesian lattice vectors (Angstroms) :

        5.811148    0.000000    0.000000
        0.000000    4.841863    0.000000
        0.000000    0.000000    7.064663

  Cell parameters (Angstroms/Degrees):

  a =       5.8111    alpha =  90.0000
  b =       4.8419    beta  =  90.0000
  c =       7.0647    gamma =  90.0000

  Initial cell volume =         198.776890 Angs**3

  Temperature of configuration =   0.00     K 

  Pressure of configuration =         0.000 GPa 

  Fractional coordinates of asymmetric unit :

--------------------------------------------------------------------------------
   No.  Atomic       x           y          z         Charge      Occupancy
        Label      (Frac)      (Frac)     (Frac)        (e)         (Frac)  
--------------------------------------------------------------------------------
      1 Ti    c    0.000000    0.000000    0.940198     2.19600    1.000000    
      2 Ti    c    0.500000 *  0.500000 *  0.059802 *   2.19600    1.000000    
      3 Ti    c    0.000000 *  0.000000 *  0.502892 *   2.19600    1.000000    
      4 Ti    c    0.500000 *  0.500000 *  0.497108 *   2.19600    1.000000    
      5 O     c    0.120895 *  0.706603 *  0.843626 *  -1.09800    1.000000    
      6 O     c    0.879105 *  0.293397 *  0.843626 *  -1.09800    1.000000    
      7 O     c    0.379105 *  0.206603 *  0.156374 *  -1.09800    1.000000    
      8 O     c    0.620895 *  0.793397 *  0.156374 *  -1.09800    1.000000    
      9 O     c    0.000000 *  0.500000 *  0.132915 *  -1.09800    1.000000    
     10 O     c    0.500000 *  0.000000 *  0.867085 *  -1.09800    1.000000    
     11 O     c    0.000000 *  0.000000 *  0.336614 *  -1.09800    1.000000    
     12 O     c    0.500000 *  0.500000 *  0.663386 *  -1.09800    1.000000    
--------------------------------------------------------------------------------



********************************************************************************
*  General input information                                                   *
********************************************************************************

  Species output for all configurations : 

--------------------------------------------------------------------------------
  Species    Type    Atomic    Atomic    Charge       Radii (Angs)     Library
                     Number     Mass       (e)     Cova   Ionic  VDW   Symbol
--------------------------------------------------------------------------------
    Ti       Core       22      47.88   2.196000   1.470  0.000  2.190          
    O        Core        8      16.00  -1.098000   0.730  0.000  1.360          
--------------------------------------------------------------------------------


  Lattice summation method               =    Ewald          (3-D)
                                         =    Parry          (2-D)
                                         =    Saunders et al (1-D)
  Accuracy factor for lattice sums       =   12.000


  Analytic derivatives to be used

  Time limit = Infinity

  Maximum range for interatomic potentials =    100000.000000 Angstroms

  General interatomic potentials :

--------------------------------------------------------------------------------
Atom  Types   Potential      Parameter       Value         Units   Cutoffs(Ang)
  1     2                                                            Min /  Max 
--------------------------------------------------------------------------------
Ti   c Ti   c Buckingham    Buckingham A     31120.100    eV        0.000 15.000
                            Buckingham rho  0.15400000    Ang       
                            Buckingham C     5.2500000    eV*Ang^6  
--------------------------------------------------------------------------------
O    c O    c Buckingham    Buckingham A     11782.700    eV        0.000 15.000
                            Buckingham rho  0.23400000    Ang       
                            Buckingham C     30.220000    eV*Ang^6  
--------------------------------------------------------------------------------
O    c Ti   c Buckingham    Buckingham A     16957.500    eV        0.000 15.000
                            Buckingham rho  0.19400000    Ang       
                            Buckingham C     12.590000    eV*Ang^6  
--------------------------------------------------------------------------------
Ti   c Ti   c Lennard       Lennard-Jones A  1.0000000    eV*Ang^m  0.000 15.000
                            Lennard-Jones B  0.0000000    eV*Ang^n  
                            Exponent m        12          None
                            Exponent n         6          None
--------------------------------------------------------------------------------
O    c O    c Lennard       Lennard-Jones A  1.0000000    eV*Ang^m  0.000 15.000
                            Lennard-Jones B  0.0000000    eV*Ang^n  
                            Exponent m        12          None
                            Exponent n         6          None
--------------------------------------------------------------------------------
O    c Ti   c Lennard       Lennard-Jones A  1.0000000    eV*Ang^m  0.000 15.000
                            Lennard-Jones B  0.0000000    eV*Ang^n  
                            Exponent m        12          None
                            Exponent n         6          None
--------------------------------------------------------------------------------

********************************************************************************
*  Output for configuration   1                                                *
********************************************************************************


  Components of energy : 

--------------------------------------------------------------------------------
  Interatomic potentials     =          78.49306881 eV    
  Monopole - monopole (real) =         -63.60409624 eV    
  Monopole - monopole (recip)=         -84.42637355 eV    
  Monopole - monopole (total)=        -148.03046980 eV    
--------------------------------------------------------------------------------
  Total lattice energy       =         -69.53740099 eV    
--------------------------------------------------------------------------------
  Total lattice energy       =           -6709.2962 kJ/(mole unit cells)
--------------------------------------------------------------------------------


  Number of variables =       39

  Maximum number of calculations  =          1000
  Maximum Hessian update interval =            10
  Maximum step size               =   1.000000000
  Maximum parameter tolerance     =   0.000010000
  Maximum function  tolerance     =   0.000010000
  Maximum gradient  tolerance     =   0.001000000
  Maximum gradient  component     =   0.010000000

  Symmetry not applied to optimisation

  Cell parameters to be optimised using strains

  Conjugate gradient optimiser to be used

  Lower half triangular hessian to be used

  Minimiser to switch to BFGS with exact hessian
  When gradient norm is less than     0.500000

  Start of bulk optimisation :

  Cycle:      0 Energy:       -69.537401  Gnorm:     57.735786  CPU:    0.018
  Cycle:      1 Energy:      -118.485872  Gnorm:      3.427461  CPU:    0.036
  Cycle:      2 Energy:      -128.144700  Gnorm:      3.892051  CPU:    0.062
  Cycle:      3 Energy:      -130.834935  Gnorm:      2.524311  CPU:    0.081
  Cycle:      4 Energy:      -133.300643  Gnorm:      1.758548  CPU:    0.100
  Cycle:      5 Energy:      -135.251924  Gnorm:      2.209319  CPU:    0.119
  Cycle:      6 Energy:      -137.171055  Gnorm:      2.057645  CPU:    0.135
  Cycle:      7 Energy:      -139.401376  Gnorm:      1.407695  CPU:    0.157
  Cycle:      8 Energy:      -140.079460  Gnorm:      0.826279  CPU:    0.174
  Cycle:      9 Energy:      -140.479995  Gnorm:      0.400557  CPU:    0.194
  ** Hessian calculated **
  Cycle:     10 Energy:      -140.838077  Gnorm:      0.210066  CPU:    0.243
  Cycle:     11 Energy:      -140.867548  Gnorm:      0.050758  CPU:    0.265
  Cycle:     12 Energy:      -140.870037  Gnorm:      0.007728  CPU:    0.282
  Cycle:     13 Energy:      -140.870096  Gnorm:      0.002400  CPU:    0.303
  Cycle:     14 Energy:      -140.870097  Gnorm:      0.002126  CPU:    0.336
  Cycle:     15 Energy:      -140.870097  Gnorm:      0.002037  CPU:    0.353


  **** Optimisation achieved ****


  Final energy =    -140.87009800 eV      
  Final Gnorm  =       0.00036995

  Components of energy : 

--------------------------------------------------------------------------------
  Interatomic potentials     =          13.01042303 eV    
  Monopole - monopole (real) =         -61.86476426 eV    
  Monopole - monopole (recip)=         -92.01575676 eV    
  Monopole - monopole (total)=        -153.88052103 eV    
--------------------------------------------------------------------------------
  Total lattice energy       =        -140.87009800 eV    
--------------------------------------------------------------------------------
  Total lattice energy       =          -13591.8111 kJ/(mole unit cells)
--------------------------------------------------------------------------------

  Final fractional coordinates of atoms :

--------------------------------------------------------------------------------
   No.  Atomic        x           y          z          Radius
        Label       (Frac)      (Frac)     (Frac)       (Angs) 
--------------------------------------------------------------------------------
     1  Ti    c     0.000000    0.000000    0.940198    0.000000
     2  Ti    c     0.500000    0.500000    0.928824    0.000000
     3  Ti    c     0.000000    0.000000    0.489402    0.000000
     4  Ti    c     0.500000    0.500000    0.379621    0.000000
     5  O     c     0.088835    0.772341    0.693577    0.000000
     6  O     c     0.911165    0.227659    0.693577    0.000000
     7  O     c     0.411200    0.272321    0.175447    0.000000
     8  O     c     0.588800    0.727679    0.175447    0.000000
     9  O     c     0.000000    0.500000    0.028132    0.000000
    10  O     c     0.500000    0.000000    0.840909    0.000000
    11  O     c     0.000000    0.000000    0.222626    0.000000
    12  O     c     0.500000    0.500000    0.646396    0.000000
--------------------------------------------------------------------------------

  Final Cartesian lattice vectors (Angstroms) :

        5.467275    0.000457    0.000000
       -0.000389    4.683145   -0.000000
        0.000000   -0.000000    6.534835


  Final cell parameters and derivatives :

--------------------------------------------------------------------------------
       a            5.467275 Angstrom     dE/de1(xx)     0.001526 eV/strain
       b            4.683145 Angstrom     dE/de2(yy)    -0.004371 eV/strain
       c            6.534835 Angstrom     dE/de3(zz)    -0.002790 eV/strain
       alpha       90.000000 Degrees      dE/de4(yz)    -0.000000 eV/strain
       beta        90.000000 Degrees      dE/de5(xz)    -0.000000 eV/strain
       gamma       89.999968 Degrees      dE/de6(xy)     0.000310 eV/strain
--------------------------------------------------------------------------------

  Primitive cell volume =           167.318195 Angs**3

  Density of cell =      3.171107 g/cm**3

  Non-primitive cell volume =           167.318195 Angs**3


  Final internal derivatives :

--------------------------------------------------------------------------------
   No.  Atomic          a             b             c           Radius
        Label          (eV)          (eV)          (eV)        (eV/Angs)
--------------------------------------------------------------------------------
      1 Ti    c       0.000000      0.000000      0.000000      0.000000
      2 Ti    c      -0.000000      0.000000      0.003946      0.000000
      3 Ti    c      -0.000000      0.000000      0.005555      0.000000
      4 Ti    c      -0.000000     -0.000000     -0.003946      0.000000
      5 O     c       0.001894      0.003690     -0.001075      0.000000
      6 O     c      -0.001894     -0.003690     -0.001075      0.000000
      7 O     c       0.003162     -0.002272     -0.001101      0.000000
      8 O     c      -0.003162      0.002272     -0.001101      0.000000
      9 O     c      -0.000000      0.000000      0.005619      0.000000
     10 O     c      -0.000000     -0.000000      0.002733      0.000000
     11 O     c       0.000000     -0.000000      0.001828      0.000000
     12 O     c      -0.000000      0.000000     -0.002237      0.000000
--------------------------------------------------------------------------------
  Maximum abs         0.003162      0.003690      0.005619      0.000000
--------------------------------------------------------------------------------


  Time to end of optimisation =       0.3709 seconds


  Peak dynamic memory used =       1.84 MB 


  Timing analysis for GULP :

--------------------------------------------------------------------------------
  Task / Subroutine                                          Time (Seconds)
--------------------------------------------------------------------------------
  Calculation of reciprocal space energy and derivatives          0.0206
  Calculation of real space energy and derivatives                0.3375
  Calculation and manipulation of Hessian matrix                  0.0001
  Calculation of matrix inversion                                 0.0002
  Global summation overhead                                       0.0001
--------------------------------------------------------------------------------
  Total CPU time                                                  0.3709
--------------------------------------------------------------------------------


  Job Finished at 11:04.02 29th May        2024                               

