********************************************************************************
*                       GENERAL UTILITY LATTICE PROGRAM                        *
*                                 Julian Gale                                  *
*                       Curtin Institute for Computation                       *
*                    School of Molecular and Life Sciences                     *
*                    Curtin University, Western Australia                      *
********************************************************************************
* Version = 6.0.0 * Last modified =  12th July 2021                            *
********************************************************************************
*  optimise     - perform optimisation run                                     *
*  conp         - constant pressure calculation                                *
*  conjugate    - use conjugate gradients minimiser                            *
********************************************************************************

  Job Started  at 11:03.58 29th May        2024                               

  Number of CPUs =     1


  Total number of configurations input =      1

********************************************************************************
*  Input for Configuration =   1                                               *
********************************************************************************

  Formula = Ti4O8                                                       

  Number of irreducible atoms/shells =      12


  Total number atoms/shells =      12

  Dimensionality = 3               :  Bulk   



  Cartesian lattice vectors (Angstroms) :

        5.812363    0.000000   -1.425722
        0.000000    4.971732    0.000000
        0.000000    0.000000    3.620480

  Cell parameters (Angstroms/Degrees):

  a =       5.9847    alpha =  90.0000
  b =       4.9717    beta  = 103.7820
  c =       3.6205    gamma =  90.0000

  Initial cell volume =         104.622868 Angs**3

  Temperature of configuration =   0.00     K 

  Pressure of configuration =         0.000 GPa 

  Fractional coordinates of asymmetric unit :

--------------------------------------------------------------------------------
   No.  Atomic       x           y          z         Charge      Occupancy
        Label      (Frac)      (Frac)     (Frac)        (e)         (Frac)  
--------------------------------------------------------------------------------
      1 Ti    c    0.000000    0.500000    0.000000     2.19600    1.000000    
      2 Ti    c    0.000000 *  0.500000 *  0.500000 *   2.19600    1.000000    
      3 Ti    c    0.500000 *  0.000000 *  0.000000 *   2.19600    1.000000    
      4 Ti    c    0.500000 *  0.000000 *  0.500000 *   2.19600    1.000000    
      5 O     c    0.197987 *  0.488208 *  0.004124 *  -1.09800    1.000000    
      6 O     c    0.802013 *  0.488208 *  0.495876 *  -1.09800    1.000000    
      7 O     c    0.802013 *  0.511792 *  0.995876 *  -1.09800    1.000000    
      8 O     c    0.197987 *  0.511792 *  0.504124 *  -1.09800    1.000000    
      9 O     c    0.697987 *  0.988208 *  0.004124 *  -1.09800    1.000000    
     10 O     c    0.302013 *  0.988208 *  0.495876 *  -1.09800    1.000000    
     11 O     c    0.302013 *  0.011792 *  0.995876 *  -1.09800    1.000000    
     12 O     c    0.697987 *  0.011792 *  0.504124 *  -1.09800    1.000000    
--------------------------------------------------------------------------------



********************************************************************************
*  General input information                                                   *
********************************************************************************

  Species output for all configurations : 

--------------------------------------------------------------------------------
  Species    Type    Atomic    Atomic    Charge       Radii (Angs)     Library
                     Number     Mass       (e)     Cova   Ionic  VDW   Symbol
--------------------------------------------------------------------------------
    Ti       Core       22      47.88   2.196000   1.470  0.000  2.190          
    O        Core        8      16.00  -1.098000   0.730  0.000  1.360          
--------------------------------------------------------------------------------


  Lattice summation method               =    Ewald          (3-D)
                                         =    Parry          (2-D)
                                         =    Saunders et al (1-D)
  Accuracy factor for lattice sums       =   12.000


  Analytic derivatives to be used

  Time limit = Infinity

  Maximum range for interatomic potentials =    100000.000000 Angstroms

  General interatomic potentials :

--------------------------------------------------------------------------------
Atom  Types   Potential      Parameter       Value         Units   Cutoffs(Ang)
  1     2                                                            Min /  Max 
--------------------------------------------------------------------------------
Ti   c Ti   c Buckingham    Buckingham A     31120.100    eV        0.000 15.000
                            Buckingham rho  0.15400000    Ang       
                            Buckingham C     5.2500000    eV*Ang^6  
--------------------------------------------------------------------------------
O    c O    c Buckingham    Buckingham A     11782.700    eV        0.000 15.000
                            Buckingham rho  0.23400000    Ang       
                            Buckingham C     30.220000    eV*Ang^6  
--------------------------------------------------------------------------------
O    c Ti   c Buckingham    Buckingham A     16957.500    eV        0.000 15.000
                            Buckingham rho  0.19400000    Ang       
                            Buckingham C     12.590000    eV*Ang^6  
--------------------------------------------------------------------------------
Ti   c Ti   c Lennard       Lennard-Jones A  1.0000000    eV*Ang^m  0.000 15.000
                            Lennard-Jones B  0.0000000    eV*Ang^n  
                            Exponent m        12          None
                            Exponent n         6          None
--------------------------------------------------------------------------------
O    c O    c Lennard       Lennard-Jones A  1.0000000    eV*Ang^m  0.000 15.000
                            Lennard-Jones B  0.0000000    eV*Ang^n  
                            Exponent m        12          None
                            Exponent n         6          None
--------------------------------------------------------------------------------
O    c Ti   c Lennard       Lennard-Jones A  1.0000000    eV*Ang^m  0.000 15.000
                            Lennard-Jones B  0.0000000    eV*Ang^n  
                            Exponent m        12          None
                            Exponent n         6          None
--------------------------------------------------------------------------------

********************************************************************************
*  Output for configuration   1                                                *
********************************************************************************


  Components of energy : 

--------------------------------------------------------------------------------
  Interatomic potentials     =         308.73418061 eV    
  Monopole - monopole (real) =         -87.32523850 eV    
  Monopole - monopole (recip)=        -106.60860075 eV    
  Monopole - monopole (total)=        -193.93383924 eV    
--------------------------------------------------------------------------------
  Total lattice energy       =         114.80034137 eV    
--------------------------------------------------------------------------------
  Total lattice energy       =           11076.4781 kJ/(mole unit cells)
--------------------------------------------------------------------------------


  Number of variables =       39

  Maximum number of calculations  =          1000
  Maximum Hessian update interval =            10
  Maximum step size               =   1.000000000
  Maximum parameter tolerance     =   0.000010000
  Maximum function  tolerance     =   0.000010000
  Maximum gradient  tolerance     =   0.001000000
  Maximum gradient  component     =   0.010000000

  Symmetry not applied to optimisation

  Cell parameters to be optimised using strains

  Conjugate gradient optimiser to be used

  Lower half triangular hessian to be used

  Minimiser to switch to BFGS with exact hessian
  When gradient norm is less than     0.500000

  Start of bulk optimisation :

  Cycle:      0 Energy:       114.800341  Gnorm:     77.121120  CPU:    0.024
  Cycle:      1 Energy:       -81.720341  Gnorm:      8.692839  CPU:    0.067
  Cycle:      2 Energy:      -133.501752  Gnorm:      3.300798  CPU:    0.114
  Cycle:      3 Energy:      -137.831946  Gnorm:      1.533687  CPU:    0.139
  Cycle:      4 Energy:      -148.323237  Gnorm:      1.525212  CPU:    0.188
  Cycle:      5 Energy:      -151.348600  Gnorm:      1.128469  CPU:    0.221
  Cycle:      6 Energy:      -153.421210  Gnorm:      0.970564  CPU:    0.253
  Cycle:      7 Energy:      -154.750851  Gnorm:      0.660466  CPU:    0.285
  Cycle:      8 Energy:      -155.913902  Gnorm:      0.970096  CPU:    0.318
  Cycle:      9 Energy:      -156.654520  Gnorm:      0.322960  CPU:    0.348
  ** Hessian calculated **
  Cycle:     10 Energy:      -156.882290  Gnorm:      0.061466  CPU:    0.427
  Cycle:     11 Energy:      -156.884632  Gnorm:      0.006420  CPU:    0.462
  Cycle:     12 Energy:      -156.884774  Gnorm:      0.003185  CPU:    0.492
  Cycle:     13 Energy:      -156.884787  Gnorm:      0.000470  CPU:    0.520


  **** Optimisation achieved ****


  Final energy =    -156.88478769 eV      
  Final Gnorm  =       0.00004066

  Components of energy : 

--------------------------------------------------------------------------------
  Interatomic potentials     =          11.24546004 eV    
  Monopole - monopole (real) =         -61.74231968 eV    
  Monopole - monopole (recip)=        -106.38792805 eV    
  Monopole - monopole (total)=        -168.13024773 eV    
--------------------------------------------------------------------------------
  Total lattice energy       =        -156.88478769 eV    
--------------------------------------------------------------------------------
  Total lattice energy       =          -15136.9838 kJ/(mole unit cells)
--------------------------------------------------------------------------------

  Final fractional coordinates of atoms :

--------------------------------------------------------------------------------
   No.  Atomic        x           y          z          Radius
        Label       (Frac)      (Frac)     (Frac)       (Angs) 
--------------------------------------------------------------------------------
     1  Ti    c     0.000000    0.500000    0.000000    0.000000
     2  Ti    c     0.000000    0.500000    0.500000    0.000000
     3  Ti    c     0.500000    0.000000    0.000000    0.000000
     4  Ti    c     0.500000    0.000000    0.500000    0.000000
     5  O     c     0.250000    0.500000    0.875000    0.000000
     6  O     c     0.750000    0.500000    0.625000    0.000000
     7  O     c     0.750000    0.500000    0.125000    0.000000
     8  O     c     0.250000    0.500000    0.375000    0.000000
     9  O     c     0.750000    0.000000    0.875000    0.000000
    10  O     c     0.250000    0.000000    0.625000    0.000000
    11  O     c     0.250000    1.000000    0.125000    0.000000
    12  O     c     0.750000    1.000000    0.375000    0.000000
--------------------------------------------------------------------------------

  Final Cartesian lattice vectors (Angstroms) :

        4.963779    0.000000   -3.163810
        0.000000    3.398477   -0.000000
       -0.326321   -0.000000    6.789126


  Final cell parameters and derivatives :

--------------------------------------------------------------------------------
       a            5.886323 Angstrom     dE/de1(xx)    -0.001426 eV/strain
       b            3.398477 Angstrom     dE/de2(yy)    -0.000125 eV/strain
       c            6.796963 Angstrom     dE/de3(zz)    -0.000018 eV/strain
       alpha       90.000000 Degrees      dE/de4(yz)    -0.000000 eV/strain
       beta       125.264413 Degrees      dE/de5(xz)     0.000013 eV/strain
       gamma       90.000000 Degrees      dE/de6(xy)     0.000000 eV/strain
--------------------------------------------------------------------------------

  Primitive cell volume =           111.019078 Angs**3

  Density of cell =      4.779214 g/cm**3

  Non-primitive cell volume =           111.019078 Angs**3


  Final internal derivatives :

--------------------------------------------------------------------------------
   No.  Atomic          a             b             c           Radius
        Label          (eV)          (eV)          (eV)        (eV/Angs)
--------------------------------------------------------------------------------
      1 Ti    c       0.000000      0.000000      0.000000      0.000000
      2 Ti    c       0.000000     -0.000000     -0.000000      0.000000
      3 Ti    c       0.000000      0.000000      0.000000      0.000000
      4 Ti    c       0.000000      0.000000     -0.000000      0.000000
      5 O     c       0.000114      0.000034     -0.000210      0.000000
      6 O     c      -0.000114      0.000034      0.000210      0.000000
      7 O     c      -0.000114     -0.000034      0.000210      0.000000
      8 O     c       0.000114     -0.000034     -0.000210      0.000000
      9 O     c       0.000114      0.000034     -0.000210      0.000000
     10 O     c      -0.000114      0.000034      0.000210      0.000000
     11 O     c      -0.000114     -0.000034      0.000210      0.000000
     12 O     c       0.000114     -0.000034     -0.000210      0.000000
--------------------------------------------------------------------------------
  Maximum abs         0.000114      0.000034      0.000210      0.000000
--------------------------------------------------------------------------------


  Time to end of optimisation =       0.5487 seconds


  Peak dynamic memory used =       1.84 MB 


  Timing analysis for GULP :

--------------------------------------------------------------------------------
  Task / Subroutine                                          Time (Seconds)
--------------------------------------------------------------------------------
  Calculation of reciprocal space energy and derivatives          0.0203
  Calculation of real space energy and derivatives                0.5158
  Calculation and manipulation of Hessian matrix                  0.0001
  Calculation of matrix inversion                                 0.0002
--------------------------------------------------------------------------------
  Total CPU time                                                  0.5488
--------------------------------------------------------------------------------


  Job Finished at 11:03.58 29th May        2024                               

