********************************************************************************
*                       GENERAL UTILITY LATTICE PROGRAM                        *
*                                 Julian Gale                                  *
*                       Curtin Institute for Computation                       *
*                    School of Molecular and Life Sciences                     *
*                    Curtin University, Western Australia                      *
********************************************************************************
* Version = 6.0.0 * Last modified =  12th July 2021                            *
********************************************************************************
*  optimise     - perform optimisation run                                     *
*  conp         - constant pressure calculation                                *
*  conjugate    - use conjugate gradients minimiser                            *
********************************************************************************

  Job Started  at 11:04.18 29th May        2024                               

  Number of CPUs =     1


  Total number of configurations input =      1

********************************************************************************
*  Input for Configuration =   1                                               *
********************************************************************************

  Formula = Ti4O8                                                       

  Number of irreducible atoms/shells =      12


  Total number atoms/shells =      12

  Dimensionality = 3               :  Bulk   



  Cartesian lattice vectors (Angstroms) :

        3.404597    0.000000    0.000000
        0.000000    5.684493    0.000000
        0.000000    0.000000    8.513191

  Cell parameters (Angstroms/Degrees):

  a =       3.4046    alpha =  90.0000
  b =       5.6845    beta  =  90.0000
  c =       8.5132    gamma =  90.0000

  Initial cell volume =         164.759286 Angs**3

  Temperature of configuration =   0.00     K 

  Pressure of configuration =         0.000 GPa 

  Fractional coordinates of asymmetric unit :

--------------------------------------------------------------------------------
   No.  Atomic       x           y          z         Charge      Occupancy
        Label      (Frac)      (Frac)     (Frac)        (e)         (Frac)  
--------------------------------------------------------------------------------
      1 Ti    c    0.000000    0.836187    0.026718     2.19600    1.000000    
      2 Ti    c    0.500000 *  0.163813 *  0.526718 *   2.19600    1.000000    
      3 Ti    c    0.000000 *  0.363023 *  0.420546 *   2.19600    1.000000    
      4 Ti    c    0.500000 *  0.636977 *  0.920546 *   2.19600    1.000000    
      5 O     c    0.350628 *  0.368877 *  0.770394 *  -1.09800    1.000000    
      6 O     c    0.149372 *  0.631123 *  0.270394 *  -1.09800    1.000000    
      7 O     c    0.850628 *  0.631123 *  0.270394 *  -1.09800    1.000000    
      8 O     c    0.649372 *  0.368877 *  0.770394 *  -1.09800    1.000000    
      9 O     c    0.000000 *  0.950497 *  0.272613 *  -1.09800    1.000000    
     10 O     c    0.500000 *  0.049503 *  0.772613 *  -1.09800    1.000000    
     11 O     c    0.000000 *  0.836829 *  0.734897 *  -1.09800    1.000000    
     12 O     c    0.500000 *  0.163171 *  0.234897 *  -1.09800    1.000000    
--------------------------------------------------------------------------------



********************************************************************************
*  General input information                                                   *
********************************************************************************

  Species output for all configurations : 

--------------------------------------------------------------------------------
  Species    Type    Atomic    Atomic    Charge       Radii (Angs)     Library
                     Number     Mass       (e)     Cova   Ionic  VDW   Symbol
--------------------------------------------------------------------------------
    Ti       Core       22      47.88   2.196000   1.470  0.000  2.190          
    O        Core        8      16.00  -1.098000   0.730  0.000  1.360          
--------------------------------------------------------------------------------


  Lattice summation method               =    Ewald          (3-D)
                                         =    Parry          (2-D)
                                         =    Saunders et al (1-D)
  Accuracy factor for lattice sums       =   12.000


  Analytic derivatives to be used

  Time limit = Infinity

  Maximum range for interatomic potentials =    100000.000000 Angstroms

  General interatomic potentials :

--------------------------------------------------------------------------------
Atom  Types   Potential      Parameter       Value         Units   Cutoffs(Ang)
  1     2                                                            Min /  Max 
--------------------------------------------------------------------------------
Ti   c Ti   c Buckingham    Buckingham A     31120.100    eV        0.000 15.000
                            Buckingham rho  0.15400000    Ang       
                            Buckingham C     5.2500000    eV*Ang^6  
--------------------------------------------------------------------------------
O    c O    c Buckingham    Buckingham A     11782.700    eV        0.000 15.000
                            Buckingham rho  0.23400000    Ang       
                            Buckingham C     30.220000    eV*Ang^6  
--------------------------------------------------------------------------------
O    c Ti   c Buckingham    Buckingham A     16957.500    eV        0.000 15.000
                            Buckingham rho  0.19400000    Ang       
                            Buckingham C     12.590000    eV*Ang^6  
--------------------------------------------------------------------------------
Ti   c Ti   c Lennard       Lennard-Jones A  1.0000000    eV*Ang^m  0.000 15.000
                            Lennard-Jones B  0.0000000    eV*Ang^n  
                            Exponent m        12          None
                            Exponent n         6          None
--------------------------------------------------------------------------------
O    c O    c Lennard       Lennard-Jones A  1.0000000    eV*Ang^m  0.000 15.000
                            Lennard-Jones B  0.0000000    eV*Ang^n  
                            Exponent m        12          None
                            Exponent n         6          None
--------------------------------------------------------------------------------
O    c Ti   c Lennard       Lennard-Jones A  1.0000000    eV*Ang^m  0.000 15.000
                            Lennard-Jones B  0.0000000    eV*Ang^n  
                            Exponent m        12          None
                            Exponent n         6          None
--------------------------------------------------------------------------------

********************************************************************************
*  Output for configuration   1                                                *
********************************************************************************


  Components of energy : 

--------------------------------------------------------------------------------
  Interatomic potentials     =         269.15175372 eV    
  Monopole - monopole (real) =           8.76809138 eV    
  Monopole - monopole (recip)=         -84.94486316 eV    
  Monopole - monopole (total)=         -76.17677178 eV    
--------------------------------------------------------------------------------
  Total lattice energy       =         192.97498194 eV    
--------------------------------------------------------------------------------
  Total lattice energy       =           18619.1359 kJ/(mole unit cells)
--------------------------------------------------------------------------------


  Number of variables =       39

  Maximum number of calculations  =          1000
  Maximum Hessian update interval =            10
  Maximum step size               =   1.000000000
  Maximum parameter tolerance     =   0.000010000
  Maximum function  tolerance     =   0.000010000
  Maximum gradient  tolerance     =   0.001000000
  Maximum gradient  component     =   0.010000000

  Symmetry not applied to optimisation

  Cell parameters to be optimised using strains

  Conjugate gradient optimiser to be used

  Lower half triangular hessian to be used

  Minimiser to switch to BFGS with exact hessian
  When gradient norm is less than     0.500000

  Start of bulk optimisation :

  Cycle:      0 Energy:       192.974982  Gnorm:     95.701930  CPU:    0.019
  Cycle:      1 Energy:       -71.903695  Gnorm:      9.510777  CPU:    0.055
  Cycle:      2 Energy:      -113.825231  Gnorm:      6.279092  CPU:    0.079
  Cycle:      3 Energy:      -133.157884  Gnorm:      2.801784  CPU:    0.105
  Cycle:      4 Energy:      -142.654162  Gnorm:      2.316274  CPU:    0.124
  Cycle:      5 Energy:      -144.994317  Gnorm:      1.267193  CPU:    0.140
  Cycle:      6 Energy:      -146.298358  Gnorm:      1.277276  CPU:    0.162
  Cycle:      7 Energy:      -147.914713  Gnorm:      1.232716  CPU:    0.182
  Cycle:      8 Energy:      -148.768505  Gnorm:      0.953787  CPU:    0.200
  Cycle:      9 Energy:      -149.729377  Gnorm:      0.905764  CPU:    0.221
  Cycle:     10 Energy:      -150.289797  Gnorm:      0.656580  CPU:    0.239
  Cycle:     11 Energy:      -151.115090  Gnorm:      0.974166  CPU:    0.263
  Cycle:     12 Energy:      -151.891604  Gnorm:      1.093799  CPU:    0.282
  Cycle:     13 Energy:      -152.782661  Gnorm:      0.721382  CPU:    0.302
  Cycle:     14 Energy:      -153.379499  Gnorm:      0.523424  CPU:    0.325
  Cycle:     15 Energy:      -153.722489  Gnorm:      0.523266  CPU:    0.350
  Cycle:     16 Energy:      -153.960156  Gnorm:      0.473521  CPU:    0.369
  ** Hessian calculated **
  Cycle:     17 Energy:      -154.318278  Gnorm:      0.331680  CPU:    0.442
  Cycle:     18 Energy:      -154.465332  Gnorm:      0.406387  CPU:    0.462
  ** Hessian calculated **
  Cycle:     19 Energy:      -154.729160  Gnorm:      0.308680  CPU:    0.532
  Cycle:     20 Energy:      -154.865330  Gnorm:      0.130525  CPU:    0.553
  Cycle:     21 Energy:      -154.881589  Gnorm:      0.077894  CPU:    0.573
  Cycle:     22 Energy:      -154.888831  Gnorm:      0.040684  CPU:    0.594
  Cycle:     23 Energy:      -154.908726  Gnorm:      0.087208  CPU:    0.624
  Cycle:     24 Energy:      -154.966936  Gnorm:      0.330919  CPU:    0.658
  Cycle:     25 Energy:      -154.969665  Gnorm:      0.383432  CPU:    0.683
  ** Hessian calculated **
  Cycle:     26 Energy:      -155.128612  Gnorm:      0.163027  CPU:    0.742
  Cycle:     27 Energy:      -155.191284  Gnorm:      0.166011  CPU:    0.767
  Cycle:     28 Energy:      -155.261861  Gnorm:      0.281742  CPU:    0.791
  Cycle:     29 Energy:      -155.365880  Gnorm:      0.218166  CPU:    0.818
  Cycle:     30 Energy:      -155.426661  Gnorm:      0.127421  CPU:    0.838
  Cycle:     31 Energy:      -155.463120  Gnorm:      0.145875  CPU:    0.863
  Cycle:     32 Energy:      -155.490603  Gnorm:      0.101725  CPU:    0.883
  Cycle:     33 Energy:      -155.510340  Gnorm:      0.093140  CPU:    0.903
  Cycle:     34 Energy:      -155.528690  Gnorm:      0.107792  CPU:    0.930
  Cycle:     35 Energy:      -155.544718  Gnorm:      0.059918  CPU:    0.950
  ** Hessian calculated **
  Cycle:     36 Energy:      -155.561634  Gnorm:      0.004785  CPU:    1.011
  Cycle:     37 Energy:      -155.561687  Gnorm:      0.000355  CPU:    1.038


  **** Optimisation achieved ****


  Final energy =    -155.56168718 eV      
  Final Gnorm  =       0.00003061

  Components of energy : 

--------------------------------------------------------------------------------
  Interatomic potentials     =          12.93414859 eV    
  Monopole - monopole (real) =         -67.79878155 eV    
  Monopole - monopole (recip)=        -100.69705422 eV    
  Monopole - monopole (total)=        -168.49583577 eV    
--------------------------------------------------------------------------------
  Total lattice energy       =        -155.56168718 eV    
--------------------------------------------------------------------------------
  Total lattice energy       =          -15009.3248 kJ/(mole unit cells)
--------------------------------------------------------------------------------

  Final fractional coordinates of atoms :

--------------------------------------------------------------------------------
   No.  Atomic        x           y          z          Radius
        Label       (Frac)      (Frac)     (Frac)       (Angs) 
--------------------------------------------------------------------------------
     1  Ti    c     0.000000    0.836187    0.026718    0.000000
     2  Ti    c     0.500000    0.011337    0.526717    0.000000
     3  Ti    c     0.000000    0.419208    0.468250    0.000000
     4  Ti    c     0.500000    0.428320    0.968251    0.000000
     5  O     c     0.265272    0.255161    0.693212    0.000000
     6  O     c     0.234729    0.592368    0.193214    0.000000
     7  O     c     0.765271    0.592368    0.193214    0.000000
     8  O     c     0.734728    0.255161    0.693212    0.000000
     9  O     c     0.000000    0.118182    0.250404    0.000000
    10  O     c     0.500000    0.729347    0.750408    0.000000
    11  O     c     0.000000    0.733864    0.669121    0.000000
    12  O     c     0.500000    0.113665    0.169122    0.000000
--------------------------------------------------------------------------------

  Final Cartesian lattice vectors (Angstroms) :

        5.268558    0.000000    0.000000
        0.000000    5.084761   -0.005139
       -0.000000    0.004908    4.873713


  Final cell parameters and derivatives :

--------------------------------------------------------------------------------
       a            5.268558 Angstrom     dE/de1(xx)     0.000099 eV/strain
       b            5.084763 Angstrom     dE/de2(yy)     0.000189 eV/strain
       c            4.873715 Angstrom     dE/de3(zz)     0.000312 eV/strain
       alpha       90.000208 Degrees      dE/de4(yz)    -0.000040 eV/strain
       beta        90.000000 Degrees      dE/de5(xz)    -0.000000 eV/strain
       gamma       90.000000 Degrees      dE/de6(xy)    -0.000000 eV/strain
--------------------------------------------------------------------------------

  Primitive cell volume =           130.563751 Angs**3

  Density of cell =      4.063792 g/cm**3

  Non-primitive cell volume =           130.563751 Angs**3


  Final internal derivatives :

--------------------------------------------------------------------------------
   No.  Atomic          a             b             c           Radius
        Label          (eV)          (eV)          (eV)        (eV/Angs)
--------------------------------------------------------------------------------
      1 Ti    c       0.000000      0.000000      0.000000      0.000000
      2 Ti    c      -0.000000     -0.000265     -0.000327      0.000000
      3 Ti    c       0.000000      0.000062     -0.000128      0.000000
      4 Ti    c      -0.000000      0.000332      0.000082      0.000000
      5 O     c      -0.000130      0.000010     -0.000018      0.000000
      6 O     c      -0.000050      0.000045      0.000129      0.000000
      7 O     c       0.000050      0.000045      0.000129      0.000000
      8 O     c       0.000130      0.000010     -0.000018      0.000000
      9 O     c      -0.000000      0.000708      0.000310      0.000000
     10 O     c       0.000000     -0.000237      0.000128      0.000000
     11 O     c      -0.000000      0.000287      0.000365      0.000000
     12 O     c       0.000000     -0.000056      0.000022      0.000000
--------------------------------------------------------------------------------
  Maximum abs         0.000130      0.000708      0.000365      0.000000
--------------------------------------------------------------------------------


  Time to end of optimisation =       1.0588 seconds


  Peak dynamic memory used =       1.84 MB 


  Timing analysis for GULP :

--------------------------------------------------------------------------------
  Task / Subroutine                                          Time (Seconds)
--------------------------------------------------------------------------------
  Calculation of reciprocal space energy and derivatives          0.0542
  Calculation of real space energy and derivatives                0.9866
  Calculation and manipulation of Hessian matrix                  0.0005
  Calculation of matrix inversion                                 0.0008
  Global summation overhead                                       0.0003
--------------------------------------------------------------------------------
  Total CPU time                                                  1.0588
--------------------------------------------------------------------------------


  Job Finished at 11:04.20 29th May        2024                               

