********************************************************************************
*                       GENERAL UTILITY LATTICE PROGRAM                        *
*                                 Julian Gale                                  *
*                       Curtin Institute for Computation                       *
*                    School of Molecular and Life Sciences                     *
*                    Curtin University, Western Australia                      *
********************************************************************************
* Version = 6.0.0 * Last modified =  12th July 2021                            *
********************************************************************************
*  optimise     - perform optimisation run                                     *
*  conp         - constant pressure calculation                                *
*  conjugate    - use conjugate gradients minimiser                            *
********************************************************************************

  Job Started  at 11:04.10 29th May        2024                               

  Number of CPUs =     1


  Total number of configurations input =      1

********************************************************************************
*  Input for Configuration =   1                                               *
********************************************************************************

  Formula = Ti4O8                                                       

  Number of irreducible atoms/shells =      12


  Total number atoms/shells =      12

  Dimensionality = 3               :  Bulk   



  Cartesian lattice vectors (Angstroms) :

        7.434741    0.000000    0.000000
        0.000000    5.592072    0.000000
        0.000000    0.000000    3.950948

  Cell parameters (Angstroms/Degrees):

  a =       7.4347    alpha =  90.0000
  b =       5.5921    beta  =  90.0000
  c =       3.9509    gamma =  90.0000

  Initial cell volume =         164.263066 Angs**3

  Temperature of configuration =   0.00     K 

  Pressure of configuration =         0.000 GPa 

  Fractional coordinates of asymmetric unit :

--------------------------------------------------------------------------------
   No.  Atomic       x           y          z         Charge      Occupancy
        Label      (Frac)      (Frac)     (Frac)        (e)         (Frac)  
--------------------------------------------------------------------------------
      1 Ti    c    0.864816    0.261362    0.873205     2.19600    1.000000    
      2 Ti    c    0.135184 *  0.738638 *  0.873205 *   2.19600    1.000000    
      3 Ti    c    0.864816 *  0.738638 *  0.373205 *   2.19600    1.000000    
      4 Ti    c    0.135184 *  0.261362 *  0.373205 *   2.19600    1.000000    
      5 O     c    0.000000 *  0.000000 *  0.095292 *  -1.09800    1.000000    
      6 O     c    0.000000 *  0.000000 *  0.595292 *  -1.09800    1.000000    
      7 O     c    0.000000 *  0.000000 *  0.401941 *  -1.09800    1.000000    
      8 O     c    0.000000 *  0.000000 *  0.901941 *  -1.09800    1.000000    
      9 O     c    0.500000 *  0.000000 *  0.816851 *  -1.09800    1.000000    
     10 O     c    0.500000 *  0.000000 *  0.316851 *  -1.09800    1.000000    
     11 O     c    0.000000 *  0.500000 *  0.678438 *  -1.09800    1.000000    
     12 O     c    0.000000 *  0.500000 *  0.178438 *  -1.09800    1.000000    
--------------------------------------------------------------------------------



********************************************************************************
*  General input information                                                   *
********************************************************************************

  Species output for all configurations : 

--------------------------------------------------------------------------------
  Species    Type    Atomic    Atomic    Charge       Radii (Angs)     Library
                     Number     Mass       (e)     Cova   Ionic  VDW   Symbol
--------------------------------------------------------------------------------
    Ti       Core       22      47.88   2.196000   1.470  0.000  2.190          
    O        Core        8      16.00  -1.098000   0.730  0.000  1.360          
--------------------------------------------------------------------------------


  Lattice summation method               =    Ewald          (3-D)
                                         =    Parry          (2-D)
                                         =    Saunders et al (1-D)
  Accuracy factor for lattice sums       =   12.000


  Analytic derivatives to be used

  Time limit = Infinity

  Maximum range for interatomic potentials =    100000.000000 Angstroms

  General interatomic potentials :

--------------------------------------------------------------------------------
Atom  Types   Potential      Parameter       Value         Units   Cutoffs(Ang)
  1     2                                                            Min /  Max 
--------------------------------------------------------------------------------
Ti   c Ti   c Buckingham    Buckingham A     31120.100    eV        0.000 15.000
                            Buckingham rho  0.15400000    Ang       
                            Buckingham C     5.2500000    eV*Ang^6  
--------------------------------------------------------------------------------
O    c O    c Buckingham    Buckingham A     11782.700    eV        0.000 15.000
                            Buckingham rho  0.23400000    Ang       
                            Buckingham C     30.220000    eV*Ang^6  
--------------------------------------------------------------------------------
O    c Ti   c Buckingham    Buckingham A     16957.500    eV        0.000 15.000
                            Buckingham rho  0.19400000    Ang       
                            Buckingham C     12.590000    eV*Ang^6  
--------------------------------------------------------------------------------
Ti   c Ti   c Lennard       Lennard-Jones A  1.0000000    eV*Ang^m  0.000 15.000
                            Lennard-Jones B  0.0000000    eV*Ang^n  
                            Exponent m        12          None
                            Exponent n         6          None
--------------------------------------------------------------------------------
O    c O    c Lennard       Lennard-Jones A  1.0000000    eV*Ang^m  0.000 15.000
                            Lennard-Jones B  0.0000000    eV*Ang^n  
                            Exponent m        12          None
                            Exponent n         6          None
--------------------------------------------------------------------------------
O    c Ti   c Lennard       Lennard-Jones A  1.0000000    eV*Ang^m  0.000 15.000
                            Lennard-Jones B  0.0000000    eV*Ang^n  
                            Exponent m        12          None
                            Exponent n         6          None
--------------------------------------------------------------------------------

********************************************************************************
*  Output for configuration   1                                                *
********************************************************************************


  Components of energy : 

--------------------------------------------------------------------------------
  Interatomic potentials     =         789.02040362 eV    
  Monopole - monopole (real) =         -26.79592346 eV    
  Monopole - monopole (recip)=         -89.08306364 eV    
  Monopole - monopole (total)=        -115.87898710 eV    
--------------------------------------------------------------------------------
  Total lattice energy       =         673.14141652 eV    
--------------------------------------------------------------------------------
  Total lattice energy       =           64947.8568 kJ/(mole unit cells)
--------------------------------------------------------------------------------


  Number of variables =       39

  Maximum number of calculations  =          1000
  Maximum Hessian update interval =            10
  Maximum step size               =   1.000000000
  Maximum parameter tolerance     =   0.000010000
  Maximum function  tolerance     =   0.000010000
  Maximum gradient  tolerance     =   0.001000000
  Maximum gradient  component     =   0.010000000

  Symmetry not applied to optimisation

  Cell parameters to be optimised using strains

  Conjugate gradient optimiser to be used

  Lower half triangular hessian to be used

  Minimiser to switch to BFGS with exact hessian
  When gradient norm is less than     0.500000

  Start of bulk optimisation :

  Cycle:      0 Energy:       673.141417  Gnorm:    195.322744  CPU:    0.019
  Cycle:      1 Energy:       424.910868  Gnorm:     62.118062  CPU:    0.041
  Cycle:      2 Energy:       266.139231  Gnorm:    116.086502  CPU:    0.063
  Cycle:      3 Energy:       142.340621  Gnorm:     41.634190  CPU:    0.082
  Cycle:      4 Energy:       102.801998  Gnorm:     52.609448  CPU:    0.100
  Cycle:      5 Energy:        27.544926  Gnorm:     45.872589  CPU:    0.120
  Cycle:      6 Energy:       -27.206878  Gnorm:     29.665665  CPU:    0.136
  Cycle:      7 Energy:       -83.117007  Gnorm:     23.488787  CPU:    0.160
  Cycle:      8 Energy:      -113.516081  Gnorm:      5.781009  CPU:    0.178
  Cycle:      9 Energy:      -118.656012  Gnorm:      2.227415  CPU:    0.193
  Cycle:     10 Energy:      -119.595075  Gnorm:      2.370558  CPU:    0.208
  Cycle:     11 Energy:      -127.439499  Gnorm:      2.713692  CPU:    0.226
  Cycle:     12 Energy:      -130.830259  Gnorm:      2.480082  CPU:    0.241
  Cycle:     13 Energy:      -136.702552  Gnorm:      2.113762  CPU:    0.261
  Cycle:     14 Energy:      -138.895770  Gnorm:      1.957038  CPU:    0.274
  Cycle:     15 Energy:      -139.957753  Gnorm:      1.472517  CPU:    0.287
  Cycle:     16 Energy:      -140.719951  Gnorm:      0.739215  CPU:    0.303
  Cycle:     17 Energy:      -141.127482  Gnorm:      0.872057  CPU:    0.319
  Cycle:     18 Energy:      -141.443625  Gnorm:      0.677744  CPU:    0.333
  Cycle:     19 Energy:      -141.835717  Gnorm:      0.617437  CPU:    0.349
  Cycle:     20 Energy:      -141.973681  Gnorm:      0.442099  CPU:    0.365
  ** Hessian calculated **
  Cycle:     21 Energy:      -142.376327  Gnorm:      0.977302  CPU:    0.403
  Cycle:     22 Energy:      -143.525620  Gnorm:      1.164509  CPU:    0.430
  Cycle:     23 Energy:      -144.621150  Gnorm:      1.234255  CPU:    0.461
  Cycle:     24 Energy:      -145.902367  Gnorm:      1.356384  CPU:    0.490
  Cycle:     25 Energy:      -147.628016  Gnorm:      1.633650  CPU:    0.512
  Cycle:     26 Energy:      -148.671737  Gnorm:      0.847747  CPU:    0.533
  Cycle:     27 Energy:      -149.121429  Gnorm:      0.539244  CPU:    0.554
  Cycle:     28 Energy:      -149.379903  Gnorm:      0.486302  CPU:    0.575
  Cycle:     29 Energy:      -149.608625  Gnorm:      0.479031  CPU:    0.603
  Cycle:     30 Energy:      -149.785105  Gnorm:      0.390523  CPU:    0.630
  ** Hessian calculated **
  Cycle:     31 Energy:      -149.910976  Gnorm:      0.323141  CPU:    0.681
  Cycle:     32 Energy:      -150.065623  Gnorm:      0.380519  CPU:    0.709
  Cycle:     33 Energy:      -150.321858  Gnorm:      0.595002  CPU:    0.740
  Cycle:     34 Energy:      -150.813293  Gnorm:      0.729817  CPU:    0.783
  Cycle:     35 Energy:      -151.371451  Gnorm:      0.610460  CPU:    0.826
  Cycle:     36 Energy:      -151.767021  Gnorm:      0.623700  CPU:    0.881
  Cycle:     37 Energy:      -152.014868  Gnorm:      0.565129  CPU:    0.924
  Cycle:     38 Energy:      -152.222268  Gnorm:      0.444437  CPU:    0.970
  Cycle:     39 Energy:      -152.459489  Gnorm:      0.391288  CPU:    1.024
  Cycle:     40 Energy:      -152.654863  Gnorm:      0.450211  CPU:    1.069
  ** Hessian calculated **
  Cycle:     41 Energy:      -153.216528  Gnorm:      0.594009  CPU:    1.160
  ** Hessian calculated **
  Cycle:     42 Energy:      -153.531828  Gnorm:      0.365427  CPU:    1.237
  ** Hessian calculated **
  Cycle:     43 Energy:      -153.724281  Gnorm:      0.206221  CPU:    1.319
  Cycle:     44 Energy:      -153.783198  Gnorm:      0.212852  CPU:    1.364
  Cycle:     45 Energy:      -153.809725  Gnorm:      0.199583  CPU:    1.397
  Cycle:     46 Energy:      -153.810377  Gnorm:      0.197362  CPU:    1.435
  ** Hessian calculated **
  Cycle:     47 Energy:      -153.881652  Gnorm:      0.183487  CPU:    1.510
  ** Hessian calculated **
  Cycle:     48 Energy:      -153.943707  Gnorm:      0.079961  CPU:    1.586
  Cycle:     49 Energy:      -153.995365  Gnorm:      0.186024  CPU:    1.636
  Cycle:     50 Energy:      -154.018256  Gnorm:      0.254501  CPU:    1.668
  Cycle:     51 Energy:      -154.029025  Gnorm:      0.228613  CPU:    1.698
  ** Hessian calculated **
  Cycle:     52 Energy:      -154.089656  Gnorm:      0.199117  CPU:    1.764
  Cycle:     53 Energy:      -154.140412  Gnorm:      0.259421  CPU:    1.802
  Cycle:     54 Energy:      -154.546398  Gnorm:      0.531153  CPU:    1.860
  Cycle:     55 Energy:      -154.614566  Gnorm:      0.541575  CPU:    1.896
  Cycle:     56 Energy:      -154.952072  Gnorm:      0.364580  CPU:    1.934
  Cycle:     57 Energy:      -155.075134  Gnorm:      0.204932  CPU:    1.964
  Cycle:     58 Energy:      -155.147685  Gnorm:      0.186028  CPU:    2.000
  Cycle:     59 Energy:      -155.197684  Gnorm:      0.125444  CPU:    2.038
  Cycle:     60 Energy:      -155.226486  Gnorm:      0.122798  CPU:    2.070
  Cycle:     61 Energy:      -155.248521  Gnorm:      0.136281  CPU:    2.118
  ** Hessian calculated **
  Cycle:     62 Energy:      -155.362930  Gnorm:      0.092517  CPU:    2.219
  Cycle:     63 Energy:      -155.391959  Gnorm:      0.165243  CPU:    2.249
  Cycle:     64 Energy:      -155.395816  Gnorm:      0.232604  CPU:    2.281
  Cycle:     65 Energy:      -155.399850  Gnorm:      0.302688  CPU:    2.326
  Cycle:     66 Energy:      -155.403247  Gnorm:      0.374391  CPU:    2.373
  ** Hessian calculated **
  Cycle:     67 Energy:      -155.555490  Gnorm:      0.258466  CPU:    2.450
  Cycle:     68 Energy:      -155.657817  Gnorm:      0.281013  CPU:    2.490
  Cycle:     69 Energy:      -155.821015  Gnorm:      0.265946  CPU:    2.528
  Cycle:     70 Energy:      -155.955793  Gnorm:      0.184855  CPU:    2.559
  Cycle:     71 Energy:      -156.002717  Gnorm:      0.126368  CPU:    2.590
  Cycle:     72 Energy:      -156.028129  Gnorm:      0.127450  CPU:    2.624
  Cycle:     73 Energy:      -156.064528  Gnorm:      0.178840  CPU:    2.664
  Cycle:     74 Energy:      -156.122716  Gnorm:      0.172669  CPU:    2.703
  Cycle:     75 Energy:      -156.179621  Gnorm:      0.174092  CPU:    2.744
  Cycle:     76 Energy:      -156.257538  Gnorm:      0.193527  CPU:    2.783
  ** Hessian calculated **
  Cycle:     77 Energy:      -156.307521  Gnorm:      0.158791  CPU:    2.864
  Cycle:     78 Energy:      -156.372492  Gnorm:      0.187064  CPU:    2.903
  Cycle:     79 Energy:      -156.424309  Gnorm:      0.181980  CPU:    2.937
  Cycle:     80 Energy:      -156.477512  Gnorm:      0.174345  CPU:    2.976
  Cycle:     81 Energy:      -156.533609  Gnorm:      0.214494  CPU:    3.015
  Cycle:     82 Energy:      -156.587612  Gnorm:      0.141752  CPU:    3.063
  Cycle:     83 Energy:      -156.632404  Gnorm:      0.095475  CPU:    3.114
  Cycle:     84 Energy:      -156.652890  Gnorm:      0.090338  CPU:    3.155
  Cycle:     85 Energy:      -156.664626  Gnorm:      0.063768  CPU:    3.191
  Cycle:     86 Energy:      -156.673477  Gnorm:      0.062806  CPU:    3.230
  ** Hessian calculated **
  Cycle:     87 Energy:      -156.698014  Gnorm:      0.009557  CPU:    3.328
  Cycle:     88 Energy:      -156.698554  Gnorm:      0.001208  CPU:    3.379


  **** Optimisation achieved ****


  Final energy =    -156.69855720 eV      
  Final Gnorm  =       0.00010423

  Components of energy : 

--------------------------------------------------------------------------------
  Interatomic potentials     =          12.33663981 eV    
  Monopole - monopole (real) =         -67.98896140 eV    
  Monopole - monopole (recip)=        -101.04623562 eV    
  Monopole - monopole (total)=        -169.03519701 eV    
--------------------------------------------------------------------------------
  Total lattice energy       =        -156.69855720 eV    
--------------------------------------------------------------------------------
  Total lattice energy       =          -15119.0154 kJ/(mole unit cells)
--------------------------------------------------------------------------------

  Final fractional coordinates of atoms :

--------------------------------------------------------------------------------
   No.  Atomic        x           y          z          Radius
        Label       (Frac)      (Frac)     (Frac)       (Angs) 
--------------------------------------------------------------------------------
     1  Ti    c     0.864816    0.261362    0.873205    0.000000
     2  Ti    c     0.299775    0.059663    0.711562    0.000000
     3  Ti    c     0.799774    0.728845    0.373203    0.000000
     4  Ti    c     0.364819    0.092187    0.211563    0.000000
     5  O     c     0.005081    0.020499    0.121440    0.000000
     6  O     c     0.659514    0.347708    0.621441    0.000000
     7  O     c     0.159511    0.926768    0.463326    0.000000
     8  O     c     0.927448    0.824813    0.812214    0.000000
     9  O     c     0.505077    0.099546    0.963326    0.000000
    10  O     c     0.737144    0.229668    0.312211    0.000000
    11  O     c     0.237146    0.499492    0.772551    0.000000
    12  O     c     0.427450    0.594650    0.272555    0.000000
--------------------------------------------------------------------------------

  Final Cartesian lattice vectors (Angstroms) :

        5.263891   -0.891181   -0.079050
       -0.705164    3.620171    0.607746
       -0.446979    0.648087    7.116136


  Final cell parameters and derivatives :

--------------------------------------------------------------------------------
       a            5.339382 Angstrom     dE/de1(xx)    -0.000017 eV/strain
       b            3.737947 Angstrom     dE/de2(yy)    -0.000236 eV/strain
       c            7.159552 Angstrom     dE/de3(zz)     0.000461 eV/strain
       alpha       74.867722 Degrees      dE/de4(yz)     0.000069 eV/strain
       beta        95.242560 Degrees      dE/de5(xz)    -0.000033 eV/strain
       gamma      110.489647 Degrees      dE/de6(xy)    -0.000174 eV/strain
--------------------------------------------------------------------------------

  Primitive cell volume =           129.211397 Angs**3

  Density of cell =      4.106324 g/cm**3

  Non-primitive cell volume =           129.211397 Angs**3


  Final internal derivatives :

--------------------------------------------------------------------------------
   No.  Atomic          a             b             c           Radius
        Label          (eV)          (eV)          (eV)        (eV/Angs)
--------------------------------------------------------------------------------
      1 Ti    c       0.000000      0.000000      0.000000      0.000000
      2 Ti    c      -0.000328      0.000870      0.000686      0.000000
      3 Ti    c      -0.001003      0.000136     -0.001411      0.000000
      4 Ti    c       0.000977     -0.000107      0.001114      0.000000
      5 O     c      -0.000005      0.000082     -0.000051      0.000000
      6 O     c       0.000173     -0.000004      0.000990      0.000000
      7 O     c      -0.000149     -0.000053      0.000311      0.000000
      8 O     c      -0.000061     -0.000294     -0.000126      0.000000
      9 O     c      -0.000276     -0.000046     -0.001033      0.000000
     10 O     c       0.000090     -0.000291      0.000352      0.000000
     11 O     c       0.001739     -0.001356     -0.001336      0.000000
     12 O     c       0.000218      0.000368     -0.000468      0.000000
--------------------------------------------------------------------------------
  Maximum abs         0.001739      0.001356      0.001411      0.000000
--------------------------------------------------------------------------------


  Time to end of optimisation =       3.4209 seconds


  Peak dynamic memory used =       1.84 MB 


  Timing analysis for GULP :

--------------------------------------------------------------------------------
  Task / Subroutine                                          Time (Seconds)
--------------------------------------------------------------------------------
  Calculation of reciprocal space energy and derivatives          0.1410
  Calculation of real space energy and derivatives                3.2490
  Calculation and manipulation of Hessian matrix                  0.0013
  Calculation of matrix inversion                                 0.0023
  Global summation overhead                                       0.0006
--------------------------------------------------------------------------------
  Total CPU time                                                  3.4209
--------------------------------------------------------------------------------


  Job Finished at 11:04.14 29th May        2024                               

