********************************************************************************
*                       GENERAL UTILITY LATTICE PROGRAM                        *
*                                 Julian Gale                                  *
*                       Curtin Institute for Computation                       *
*                    School of Molecular and Life Sciences                     *
*                    Curtin University, Western Australia                      *
********************************************************************************
* Version = 6.0.0 * Last modified =  12th July 2021                            *
********************************************************************************
*  optimise     - perform optimisation run                                     *
*  conp         - constant pressure calculation                                *
*  conjugate    - use conjugate gradients minimiser                            *
********************************************************************************

  Job Started  at 11:04.06 29th May        2024                               

  Number of CPUs =     1


  Total number of configurations input =      1

********************************************************************************
*  Input for Configuration =   1                                               *
********************************************************************************

  Formula = Ti4O8                                                       

  Number of irreducible atoms/shells =      12


  Total number atoms/shells =      12

  Dimensionality = 3               :  Bulk   



  Cartesian lattice vectors (Angstroms) :

        5.207467    0.000000    0.000000
        0.000000    3.479613    0.000000
        0.000000    0.000000    6.358237

  Cell parameters (Angstroms/Degrees):

  a =       5.2075    alpha =  90.0000
  b =       3.4796    beta  =  90.0000
  c =       6.3582    gamma =  90.0000

  Initial cell volume =         115.211052 Angs**3

  Temperature of configuration =   0.00     K 

  Pressure of configuration =         0.000 GPa 

  Fractional coordinates of asymmetric unit :

--------------------------------------------------------------------------------
   No.  Atomic       x           y          z         Charge      Occupancy
        Label      (Frac)      (Frac)     (Frac)        (e)         (Frac)  
--------------------------------------------------------------------------------
      1 Ti    c    0.500000    0.000000    0.000000     2.19600    1.000000    
      2 Ti    c    0.000000 *  0.500000 *  0.500000 *   2.19600    1.000000    
      3 Ti    c    0.000000 *  0.000000 *  0.000000 *   2.19600    1.000000    
      4 Ti    c    0.500000 *  0.500000 *  0.500000 *   2.19600    1.000000    
      5 O     c    0.000000 *  0.000000 *  0.500000 *  -1.09800    1.000000    
      6 O     c    0.500000 *  0.500000 *  0.000000 *  -1.09800    1.000000    
      7 O     c    0.000000 *  0.000000 *  0.337530 *  -1.09800    1.000000    
      8 O     c    0.000000 *  0.000000 *  0.662470 *  -1.09800    1.000000    
      9 O     c    0.500000 *  0.500000 *  0.837530 *  -1.09800    1.000000    
     10 O     c    0.500000 *  0.500000 *  0.162470 *  -1.09800    1.000000    
     11 O     c    0.000000 *  0.500000 *  0.000000 *  -1.09800    1.000000    
     12 O     c    0.500000 *  0.000000 *  0.500000 *  -1.09800    1.000000    
--------------------------------------------------------------------------------



********************************************************************************
*  General input information                                                   *
********************************************************************************

  Species output for all configurations : 

--------------------------------------------------------------------------------
  Species    Type    Atomic    Atomic    Charge       Radii (Angs)     Library
                     Number     Mass       (e)     Cova   Ionic  VDW   Symbol
--------------------------------------------------------------------------------
    Ti       Core       22      47.88   2.196000   1.470  0.000  2.190          
    O        Core        8      16.00  -1.098000   0.730  0.000  1.360          
--------------------------------------------------------------------------------


  Lattice summation method               =    Ewald          (3-D)
                                         =    Parry          (2-D)
                                         =    Saunders et al (1-D)
  Accuracy factor for lattice sums       =   12.000


  Analytic derivatives to be used

  Time limit = Infinity

  Maximum range for interatomic potentials =    100000.000000 Angstroms

  General interatomic potentials :

--------------------------------------------------------------------------------
Atom  Types   Potential      Parameter       Value         Units   Cutoffs(Ang)
  1     2                                                            Min /  Max 
--------------------------------------------------------------------------------
Ti   c Ti   c Buckingham    Buckingham A     31120.100    eV        0.000 15.000
                            Buckingham rho  0.15400000    Ang       
                            Buckingham C     5.2500000    eV*Ang^6  
--------------------------------------------------------------------------------
O    c O    c Buckingham    Buckingham A     11782.700    eV        0.000 15.000
                            Buckingham rho  0.23400000    Ang       
                            Buckingham C     30.220000    eV*Ang^6  
--------------------------------------------------------------------------------
O    c Ti   c Buckingham    Buckingham A     16957.500    eV        0.000 15.000
                            Buckingham rho  0.19400000    Ang       
                            Buckingham C     12.590000    eV*Ang^6  
--------------------------------------------------------------------------------
Ti   c Ti   c Lennard       Lennard-Jones A  1.0000000    eV*Ang^m  0.000 15.000
                            Lennard-Jones B  0.0000000    eV*Ang^n  
                            Exponent m        12          None
                            Exponent n         6          None
--------------------------------------------------------------------------------
O    c O    c Lennard       Lennard-Jones A  1.0000000    eV*Ang^m  0.000 15.000
                            Lennard-Jones B  0.0000000    eV*Ang^n  
                            Exponent m        12          None
                            Exponent n         6          None
--------------------------------------------------------------------------------
O    c Ti   c Lennard       Lennard-Jones A  1.0000000    eV*Ang^m  0.000 15.000
                            Lennard-Jones B  0.0000000    eV*Ang^n  
                            Exponent m        12          None
                            Exponent n         6          None
--------------------------------------------------------------------------------

********************************************************************************
*  Output for configuration   1                                                *
********************************************************************************


  Components of energy : 

--------------------------------------------------------------------------------
  Interatomic potentials     =         491.55352204 eV    
  Monopole - monopole (real) =         -33.03143548 eV    
  Monopole - monopole (recip)=        -103.92705163 eV    
  Monopole - monopole (total)=        -136.95848711 eV    
--------------------------------------------------------------------------------
  Total lattice energy       =         354.59503493 eV    
--------------------------------------------------------------------------------
  Total lattice energy       =           34213.0004 kJ/(mole unit cells)
--------------------------------------------------------------------------------


  Number of variables =       39

  Maximum number of calculations  =          1000
  Maximum Hessian update interval =            10
  Maximum step size               =   1.000000000
  Maximum parameter tolerance     =   0.000010000
  Maximum function  tolerance     =   0.000010000
  Maximum gradient  tolerance     =   0.001000000
  Maximum gradient  component     =   0.010000000

  Symmetry not applied to optimisation

  Cell parameters to be optimised using strains

  Conjugate gradient optimiser to be used

  Lower half triangular hessian to be used

  Minimiser to switch to BFGS with exact hessian
  When gradient norm is less than     0.500000

  Start of bulk optimisation :

  Cycle:      0 Energy:       354.595035  Gnorm:    169.562957  CPU:    0.022
  Cycle:      1 Energy:      -115.534568  Gnorm:      6.238765  CPU:    0.064
  Cycle:      2 Energy:      -128.059419  Gnorm:      4.660794  CPU:    0.088
  Cycle:      3 Energy:      -134.517872  Gnorm:      1.101951  CPU:    0.111
  Cycle:      4 Energy:      -135.513665  Gnorm:      0.965187  CPU:    0.133
  Cycle:      5 Energy:      -136.789646  Gnorm:      0.704762  CPU:    0.153
  Cycle:      6 Energy:      -137.281367  Gnorm:      0.624299  CPU:    0.168
  Cycle:      7 Energy:      -138.132865  Gnorm:      0.526477  CPU:    0.188
  Cycle:      8 Energy:      -138.375376  Gnorm:      0.584032  CPU:    0.202
  Cycle:      9 Energy:      -139.136266  Gnorm:      0.589374  CPU:    0.220
  Cycle:     10 Energy:      -139.269835  Gnorm:      0.052743  CPU:    0.238
  ** Hessian calculated **
  Cycle:     11 Energy:      -139.332514  Gnorm:      0.014628  CPU:    0.277
  Cycle:     12 Energy:      -139.338094  Gnorm:      0.007276  CPU:    0.289
  Cycle:     13 Energy:      -139.338201  Gnorm:      0.000533  CPU:    0.303


  **** Optimisation achieved ****


  Final energy =    -139.33820295 eV      
  Final Gnorm  =       0.00010811

  Components of energy : 

--------------------------------------------------------------------------------
  Interatomic potentials     =          13.68342171 eV    
  Monopole - monopole (real) =         -79.07346189 eV    
  Monopole - monopole (recip)=         -73.94816277 eV    
  Monopole - monopole (total)=        -153.02162466 eV    
--------------------------------------------------------------------------------
  Total lattice energy       =        -139.33820295 eV    
--------------------------------------------------------------------------------
  Total lattice energy       =          -13444.0066 kJ/(mole unit cells)
--------------------------------------------------------------------------------

  Final fractional coordinates of atoms :

--------------------------------------------------------------------------------
   No.  Atomic        x           y          z          Radius
        Label       (Frac)      (Frac)     (Frac)       (Angs) 
--------------------------------------------------------------------------------
     1  Ti    c     0.500000    0.000000    0.000000    0.000000
     2  Ti    c     0.000000    0.500000    0.500000    0.000000
     3  Ti    c     0.000000    0.000000    0.000000    0.000000
     4  Ti    c     0.500000    0.500000    0.500000    0.000000
     5  O     c     0.000000    0.000000    0.500000    0.000000
     6  O     c     0.500000    0.500000    0.000000    0.000000
     7  O     c     0.000000    0.000000    0.215008    0.000000
     8  O     c     0.000000    0.000000    0.784992    0.000000
     9  O     c     0.500000    0.500000    0.715008    0.000000
    10  O     c     0.500000    0.500000    0.284992    0.000000
    11  O     c     0.000000    0.500000    0.000000    0.000000
    12  O     c     0.500000    0.000000    0.500000    0.000000
--------------------------------------------------------------------------------

  Final Cartesian lattice vectors (Angstroms) :

       10.576088    0.000000   -0.000000
        0.000000    3.622068   -0.000000
       -0.000000   -0.000000    8.613334


  Final cell parameters and derivatives :

--------------------------------------------------------------------------------
       a           10.576088 Angstrom     dE/de1(xx)     0.000038 eV/strain
       b            3.622068 Angstrom     dE/de2(yy)    -0.002663 eV/strain
       c            8.613334 Angstrom     dE/de3(zz)     0.001749 eV/strain
       alpha       90.000000 Degrees      dE/de4(yz)     0.000000 eV/strain
       beta        90.000000 Degrees      dE/de5(xz)     0.000000 eV/strain
       gamma       90.000000 Degrees      dE/de6(xy)     0.000000 eV/strain
--------------------------------------------------------------------------------

  Primitive cell volume =           329.953637 Angs**3

  Density of cell =      1.608056 g/cm**3

  Non-primitive cell volume =           329.953637 Angs**3


  Final internal derivatives :

--------------------------------------------------------------------------------
   No.  Atomic          a             b             c           Radius
        Label          (eV)          (eV)          (eV)        (eV/Angs)
--------------------------------------------------------------------------------
      1 Ti    c       0.000000      0.000000      0.000000      0.000000
      2 Ti    c       0.000000     -0.000000      0.000000      0.000000
      3 Ti    c       0.000000     -0.000000     -0.000000      0.000000
      4 Ti    c      -0.000000      0.000000     -0.000000      0.000000
      5 O     c      -0.000000     -0.000000     -0.000000      0.000000
      6 O     c       0.000000      0.000000     -0.000000      0.000000
      7 O     c      -0.000000      0.000000      0.001381      0.000000
      8 O     c      -0.000000     -0.000000     -0.001381      0.000000
      9 O     c      -0.000000     -0.000000      0.001381      0.000000
     10 O     c       0.000000     -0.000000     -0.001381      0.000000
     11 O     c      -0.000000      0.000000     -0.000000      0.000000
     12 O     c       0.000000      0.000000     -0.000000      0.000000
--------------------------------------------------------------------------------
  Maximum abs         0.000000      0.000000      0.001381      0.000000
--------------------------------------------------------------------------------


  Time to end of optimisation =       0.3181 seconds


  Peak dynamic memory used =       1.84 MB 


  Timing analysis for GULP :

--------------------------------------------------------------------------------
  Task / Subroutine                                          Time (Seconds)
--------------------------------------------------------------------------------
  Calculation of reciprocal space energy and derivatives          0.0173
  Calculation of real space energy and derivatives                0.2883
  Calculation of matrix inversion                                 0.0002
  Global summation overhead                                       0.0001
--------------------------------------------------------------------------------
  Total CPU time                                                  0.3182
--------------------------------------------------------------------------------


  Job Finished at 11:04.06 29th May        2024                               

