********************************************************************************
*                       GENERAL UTILITY LATTICE PROGRAM                        *
*                                 Julian Gale                                  *
*                       Curtin Institute for Computation                       *
*                    School of Molecular and Life Sciences                     *
*                    Curtin University, Western Australia                      *
********************************************************************************
* Version = 6.0.0 * Last modified =  12th July 2021                            *
********************************************************************************
*  optimise     - perform optimisation run                                     *
*  conp         - constant pressure calculation                                *
*  conjugate    - use conjugate gradients minimiser                            *
********************************************************************************

  Job Started  at 11:04.15 29th May        2024                               

  Number of CPUs =     1


  Total number of configurations input =      1

********************************************************************************
*  Input for Configuration =   1                                               *
********************************************************************************

  Formula = Ti4O8                                                       

  Number of irreducible atoms/shells =      12


  Total number atoms/shells =      12

  Dimensionality = 3               :  Bulk   



  Cartesian lattice vectors (Angstroms) :

        4.621767    0.000000    0.000000
        0.000000    6.096252    0.000000
        0.000000    0.000000    4.663826

  Cell parameters (Angstroms/Degrees):

  a =       4.6218    alpha =  90.0000
  b =       6.0963    beta  =  90.0000
  c =       4.6638    gamma =  90.0000

  Initial cell volume =         131.405438 Angs**3

  Temperature of configuration =   0.00     K 

  Pressure of configuration =         0.000 GPa 

  Fractional coordinates of asymmetric unit :

--------------------------------------------------------------------------------
   No.  Atomic       x           y          z         Charge      Occupancy
        Label      (Frac)      (Frac)     (Frac)        (e)         (Frac)  
--------------------------------------------------------------------------------
      1 Ti    c    0.922471    0.473982    0.228207     2.19600    1.000000    
      2 Ti    c    0.077529 *  0.526018 *  0.728207 *   2.19600    1.000000    
      3 Ti    c    0.422471 *  0.526018 *  0.228207 *   2.19600    1.000000    
      4 Ti    c    0.577529 *  0.473982 *  0.728207 *   2.19600    1.000000    
      5 O     c    0.322691 *  0.870582 *  0.823378 *  -1.09800    1.000000    
      6 O     c    0.677309 *  0.129418 *  0.323378 *  -1.09800    1.000000    
      7 O     c    0.822691 *  0.129418 *  0.823378 *  -1.09800    1.000000    
      8 O     c    0.177309 *  0.870582 *  0.323378 *  -1.09800    1.000000    
      9 O     c    0.411591 *  0.803569 *  0.577253 *  -1.09800    1.000000    
     10 O     c    0.588409 *  0.196431 *  0.077253 *  -1.09800    1.000000    
     11 O     c    0.911591 *  0.196431 *  0.577253 *  -1.09800    1.000000    
     12 O     c    0.088409 *  0.803569 *  0.077253 *  -1.09800    1.000000    
--------------------------------------------------------------------------------



********************************************************************************
*  General input information                                                   *
********************************************************************************

  Species output for all configurations : 

--------------------------------------------------------------------------------
  Species    Type    Atomic    Atomic    Charge       Radii (Angs)     Library
                     Number     Mass       (e)     Cova   Ionic  VDW   Symbol
--------------------------------------------------------------------------------
    Ti       Core       22      47.88   2.196000   1.470  0.000  2.190          
    O        Core        8      16.00  -1.098000   0.730  0.000  1.360          
--------------------------------------------------------------------------------


  Lattice summation method               =    Ewald          (3-D)
                                         =    Parry          (2-D)
                                         =    Saunders et al (1-D)
  Accuracy factor for lattice sums       =   12.000


  Analytic derivatives to be used

  Time limit = Infinity

  Maximum range for interatomic potentials =    100000.000000 Angstroms

  General interatomic potentials :

--------------------------------------------------------------------------------
Atom  Types   Potential      Parameter       Value         Units   Cutoffs(Ang)
  1     2                                                            Min /  Max 
--------------------------------------------------------------------------------
Ti   c Ti   c Buckingham    Buckingham A     31120.100    eV        0.000 15.000
                            Buckingham rho  0.15400000    Ang       
                            Buckingham C     5.2500000    eV*Ang^6  
--------------------------------------------------------------------------------
O    c O    c Buckingham    Buckingham A     11782.700    eV        0.000 15.000
                            Buckingham rho  0.23400000    Ang       
                            Buckingham C     30.220000    eV*Ang^6  
--------------------------------------------------------------------------------
O    c Ti   c Buckingham    Buckingham A     16957.500    eV        0.000 15.000
                            Buckingham rho  0.19400000    Ang       
                            Buckingham C     12.590000    eV*Ang^6  
--------------------------------------------------------------------------------
Ti   c Ti   c Lennard       Lennard-Jones A  1.0000000    eV*Ang^m  0.000 15.000
                            Lennard-Jones B  0.0000000    eV*Ang^n  
                            Exponent m        12          None
                            Exponent n         6          None
--------------------------------------------------------------------------------
O    c O    c Lennard       Lennard-Jones A  1.0000000    eV*Ang^m  0.000 15.000
                            Lennard-Jones B  0.0000000    eV*Ang^n  
                            Exponent m        12          None
                            Exponent n         6          None
--------------------------------------------------------------------------------
O    c Ti   c Lennard       Lennard-Jones A  1.0000000    eV*Ang^m  0.000 15.000
                            Lennard-Jones B  0.0000000    eV*Ang^n  
                            Exponent m        12          None
                            Exponent n         6          None
--------------------------------------------------------------------------------

********************************************************************************
*  Output for configuration   1                                                *
********************************************************************************


  Components of energy : 

--------------------------------------------------------------------------------
  Interatomic potentials     =         200.95841367 eV    
  Monopole - monopole (real) =          43.17125298 eV    
  Monopole - monopole (recip)=         -47.48074607 eV    
  Monopole - monopole (total)=          -4.30949309 eV    
--------------------------------------------------------------------------------
  Total lattice energy       =         196.64892059 eV    
--------------------------------------------------------------------------------
  Total lattice energy       =           18973.6148 kJ/(mole unit cells)
--------------------------------------------------------------------------------


  Number of variables =       39

  Maximum number of calculations  =          1000
  Maximum Hessian update interval =            10
  Maximum step size               =   1.000000000
  Maximum parameter tolerance     =   0.000010000
  Maximum function  tolerance     =   0.000010000
  Maximum gradient  tolerance     =   0.001000000
  Maximum gradient  component     =   0.010000000

  Symmetry not applied to optimisation

  Cell parameters to be optimised using strains

  Conjugate gradient optimiser to be used

  Lower half triangular hessian to be used

  Minimiser to switch to BFGS with exact hessian
  When gradient norm is less than     0.500000

  Start of bulk optimisation :

  Cycle:      0 Energy:       196.648921  Gnorm:     66.667689  CPU:    0.021
  Cycle:      1 Energy:       -76.591281  Gnorm:      8.993854  CPU:    0.062
  Cycle:      2 Energy:       -98.052286  Gnorm:      5.188656  CPU:    0.086
  Cycle:      3 Energy:      -122.350813  Gnorm:      8.262147  CPU:    0.106
  Cycle:      4 Energy:      -134.353746  Gnorm:      2.204230  CPU:    0.125
  Cycle:      5 Energy:      -138.096554  Gnorm:      2.151661  CPU:    0.147
  Cycle:      6 Energy:      -141.130735  Gnorm:      1.944531  CPU:    0.164
  Cycle:      7 Energy:      -143.010143  Gnorm:      2.466896  CPU:    0.181
  Cycle:      8 Energy:      -144.793286  Gnorm:      1.368430  CPU:    0.198
  Cycle:      9 Energy:      -145.981157  Gnorm:      0.863408  CPU:    0.218
  Cycle:     10 Energy:      -146.452136  Gnorm:      0.652073  CPU:    0.239
  Cycle:     11 Energy:      -147.235226  Gnorm:      0.679309  CPU:    0.263
  Cycle:     12 Energy:      -147.832805  Gnorm:      0.935874  CPU:    0.281
  Cycle:     13 Energy:      -149.397167  Gnorm:      0.974990  CPU:    0.303
  Cycle:     14 Energy:      -150.326313  Gnorm:      1.070077  CPU:    0.323
  Cycle:     15 Energy:      -151.480423  Gnorm:      0.861647  CPU:    0.346
  Cycle:     16 Energy:      -152.271160  Gnorm:      0.529197  CPU:    0.372
  Cycle:     17 Energy:      -152.647001  Gnorm:      0.475493  CPU:    0.397
  ** Hessian calculated **
  Cycle:     18 Energy:      -152.824310  Gnorm:      0.218944  CPU:    0.467
  Cycle:     19 Energy:      -152.851971  Gnorm:      0.178855  CPU:    0.493
  Cycle:     20 Energy:      -152.886470  Gnorm:      0.312340  CPU:    0.528
  Cycle:     21 Energy:      -152.902236  Gnorm:      0.451237  CPU:    0.553
  Cycle:     22 Energy:      -152.952091  Gnorm:      0.485489  CPU:    0.583
  Cycle:     23 Energy:      -152.972465  Gnorm:      0.398897  CPU:    0.607
  Cycle:     24 Energy:      -152.986431  Gnorm:      0.276378  CPU:    0.639
  Cycle:     25 Energy:      -152.988756  Gnorm:      0.233177  CPU:    0.662
  ** Hessian calculated **
  Cycle:     26 Energy:      -153.071831  Gnorm:      0.166423  CPU:    0.724
  Cycle:     27 Energy:      -153.116117  Gnorm:      0.136418  CPU:    0.755
  Cycle:     28 Energy:      -153.203206  Gnorm:      0.228969  CPU:    0.784
  Cycle:     29 Energy:      -153.323684  Gnorm:      0.311949  CPU:    0.814
  Cycle:     30 Energy:      -153.552793  Gnorm:      0.368844  CPU:    0.850
  Cycle:     31 Energy:      -153.830110  Gnorm:      0.486739  CPU:    0.881
  Cycle:     32 Energy:      -154.086164  Gnorm:      0.468555  CPU:    0.918
  Cycle:     33 Energy:      -154.534288  Gnorm:      0.583273  CPU:    0.949
  Cycle:     34 Energy:      -154.760728  Gnorm:      0.366442  CPU:    0.979
  Cycle:     35 Energy:      -154.887526  Gnorm:      0.195637  CPU:    1.012
  ** Hessian calculated **
  Cycle:     36 Energy:      -155.002374  Gnorm:      0.179674  CPU:    1.090
  ** Hessian calculated **
  Cycle:     37 Energy:      -155.142136  Gnorm:      0.136967  CPU:    1.176
  Cycle:     38 Energy:      -155.192251  Gnorm:      0.093702  CPU:    1.207
  Cycle:     39 Energy:      -155.211118  Gnorm:      0.100378  CPU:    1.246
  Cycle:     40 Energy:      -155.223925  Gnorm:      0.059922  CPU:    1.277
  Cycle:     41 Energy:      -155.225348  Gnorm:      0.064372  CPU:    1.314
  ** Hessian calculated **
  Cycle:     42 Energy:      -155.234577  Gnorm:      0.044411  CPU:    1.387
  Cycle:     43 Energy:      -155.236241  Gnorm:      0.019059  CPU:    1.417
  ** Hessian calculated **
  Cycle:     44 Energy:      -155.236709  Gnorm:      0.013989  CPU:    1.497
  Cycle:     45 Energy:      -155.236908  Gnorm:      0.010340  CPU:    1.528
  Cycle:     46 Energy:      -155.237148  Gnorm:      0.011989  CPU:    1.565
  Cycle:     47 Energy:      -155.237399  Gnorm:      0.012067  CPU:    1.605
  Cycle:     48 Energy:      -155.237667  Gnorm:      0.014791  CPU:    1.642
  Cycle:     49 Energy:      -155.237993  Gnorm:      0.014120  CPU:    1.681
  Cycle:     50 Energy:      -155.238449  Gnorm:      0.020190  CPU:    1.719
  Cycle:     51 Energy:      -155.240587  Gnorm:      0.039454  CPU:    1.764
  Cycle:     52 Energy:      -155.244708  Gnorm:      0.068815  CPU:    1.810
  Cycle:     53 Energy:      -155.248201  Gnorm:      0.092522  CPU:    1.847
  ** Hessian calculated **
  Cycle:     54 Energy:      -155.255587  Gnorm:      0.059959  CPU:    1.921
  Cycle:     55 Energy:      -155.261974  Gnorm:      0.067644  CPU:    1.958
  Cycle:     56 Energy:      -155.267263  Gnorm:      0.049584  CPU:    1.988
  Cycle:     57 Energy:      -155.272123  Gnorm:      0.054352  CPU:    2.025
  Cycle:     58 Energy:      -155.275765  Gnorm:      0.045810  CPU:    2.056
  Cycle:     59 Energy:      -155.280096  Gnorm:      0.051674  CPU:    2.095
  Cycle:     60 Energy:      -155.285572  Gnorm:      0.039704  CPU:    2.132
  Cycle:     61 Energy:      -155.290348  Gnorm:      0.049053  CPU:    2.169
  Cycle:     62 Energy:      -155.298725  Gnorm:      0.076578  CPU:    2.208
  Cycle:     63 Energy:      -155.311755  Gnorm:      0.086356  CPU:    2.245
  ** Hessian calculated **
  Cycle:     64 Energy:      -155.356021  Gnorm:      0.062826  CPU:    2.328
  Cycle:     65 Energy:      -155.365587  Gnorm:      0.033973  CPU:    2.359
  Cycle:     66 Energy:      -155.382656  Gnorm:      0.084370  CPU:    2.396
  Cycle:     67 Energy:      -155.389667  Gnorm:      0.103600  CPU:    2.423
  Cycle:     68 Energy:      -155.419651  Gnorm:      0.145906  CPU:    2.460
  Cycle:     69 Energy:      -155.448923  Gnorm:      0.169485  CPU:    2.486
  Cycle:     70 Energy:      -155.475394  Gnorm:      0.218634  CPU:    2.525
  Cycle:     71 Energy:      -155.517242  Gnorm:      0.275566  CPU:    2.563
  Cycle:     72 Energy:      -155.621757  Gnorm:      0.393680  CPU:    2.600
  Cycle:     73 Energy:      -155.806643  Gnorm:      0.552758  CPU:    2.638
  ** Hessian calculated **
  Cycle:     74 Energy:      -156.260935  Gnorm:      0.410239  CPU:    2.708
  Cycle:     75 Energy:      -156.641823  Gnorm:      0.553772  CPU:    2.739
  Cycle:     76 Energy:      -156.896939  Gnorm:      0.489764  CPU:    2.768
  Cycle:     77 Energy:      -157.212146  Gnorm:      0.291812  CPU:    2.800
  Cycle:     78 Energy:      -157.358117  Gnorm:      0.297139  CPU:    2.826
  Cycle:     79 Energy:      -157.449407  Gnorm:      0.141805  CPU:    2.852
  Cycle:     80 Energy:      -157.475189  Gnorm:      0.074615  CPU:    2.881
  Cycle:     81 Energy:      -157.484974  Gnorm:      0.063848  CPU:    2.907
  Cycle:     82 Energy:      -157.490642  Gnorm:      0.056211  CPU:    2.934
  Cycle:     83 Energy:      -157.498110  Gnorm:      0.048305  CPU:    2.966
  ** Hessian calculated **
  Cycle:     84 Energy:      -157.509670  Gnorm:      0.016805  CPU:    3.043
  Cycle:     85 Energy:      -157.510135  Gnorm:      0.005515  CPU:    3.069
  Cycle:     86 Energy:      -157.510198  Gnorm:      0.000238  CPU:    3.103


  **** Optimisation achieved ****


  Final energy =    -157.51019814 eV      
  Final Gnorm  =       0.00004478

  Components of energy : 

--------------------------------------------------------------------------------
  Interatomic potentials     =          11.51098776 eV    
  Monopole - monopole (real) =         -63.24753173 eV    
  Monopole - monopole (recip)=        -105.77365417 eV    
  Monopole - monopole (total)=        -169.02118590 eV    
--------------------------------------------------------------------------------
  Total lattice energy       =        -157.51019814 eV    
--------------------------------------------------------------------------------
  Total lattice energy       =          -15197.3264 kJ/(mole unit cells)
--------------------------------------------------------------------------------

  Final fractional coordinates of atoms :

--------------------------------------------------------------------------------
   No.  Atomic        x           y          z          Radius
        Label       (Frac)      (Frac)     (Frac)       (Angs) 
--------------------------------------------------------------------------------
     1  Ti    c     0.922471    0.473982    0.228207    0.000000
     2  Ti    c     0.422470    0.473981    0.728207    0.000000
     3  Ti    c     0.433640    0.973981    0.217040    0.000000
     4  Ti    c     0.933639    0.973980    0.717039    0.000000
     5  O     c     0.279535    0.973988    0.877524    0.000000
     6  O     c     0.779534    0.973990    0.377523    0.000000
     7  O     c     0.942389    0.973979    0.053043    0.000000
     8  O     c     0.442388    0.973981    0.553042    0.000000
     9  O     c     0.582955    0.473989    0.074104    0.000000
    10  O     c     0.758473    0.473980    0.736958    0.000000
    11  O     c     0.082955    0.473989    0.574104    0.000000
    12  O     c     0.258474    0.473981    0.236958    0.000000
--------------------------------------------------------------------------------

  Final Cartesian lattice vectors (Angstroms) :

        5.952839    0.040286   -0.945063
       -0.020423    3.253116    0.010026
       -0.878476   -0.023881    5.963125


  Final cell parameters and derivatives :

--------------------------------------------------------------------------------
       a            6.027525 Angstrom     dE/de1(xx)    -0.000614 eV/strain
       b            3.253196 Angstrom     dE/de2(yy)    -0.000441 eV/strain
       c            6.027533 Angstrom     dE/de3(zz)    -0.000216 eV/strain
       alpha       89.999888 Degrees      dE/de4(yz)     0.000201 eV/strain
       beta       107.402376 Degrees      dE/de5(xz)    -0.000057 eV/strain
       gamma       89.999988 Degrees      dE/de6(xy)    -0.000014 eV/strain
--------------------------------------------------------------------------------

  Primitive cell volume =           112.782285 Angs**3

  Density of cell =      4.704497 g/cm**3

  Non-primitive cell volume =           112.782285 Angs**3


  Final internal derivatives :

--------------------------------------------------------------------------------
   No.  Atomic          a             b             c           Radius
        Label          (eV)          (eV)          (eV)        (eV/Angs)
--------------------------------------------------------------------------------
      1 Ti    c       0.000000      0.000000      0.000000      0.000000
      2 Ti    c      -0.000148     -0.000005      0.000119      0.000000
      3 Ti    c       0.000940     -0.000156      0.000195      0.000000
      4 Ti    c       0.000271     -0.000144      0.000149      0.000000
      5 O     c      -0.000179      0.000038     -0.000100      0.000000
      6 O     c      -0.000578      0.000266     -0.000386      0.000000
      7 O     c      -0.000103     -0.000463      0.000206      0.000000
      8 O     c      -0.000223     -0.000062     -0.000200      0.000000
      9 O     c      -0.000170      0.000117     -0.000143      0.000000
     10 O     c      -0.000261     -0.000045      0.000175      0.000000
     11 O     c       0.000285      0.000088      0.000267      0.000000
     12 O     c      -0.000030      0.000076      0.000032      0.000000
--------------------------------------------------------------------------------
  Maximum abs         0.000940      0.000463      0.000386      0.000000
--------------------------------------------------------------------------------


  Time to end of optimisation =       3.1300 seconds


  Peak dynamic memory used =       1.84 MB 


  Timing analysis for GULP :

--------------------------------------------------------------------------------
  Task / Subroutine                                          Time (Seconds)
--------------------------------------------------------------------------------
  Calculation of reciprocal space energy and derivatives          0.1221
  Calculation of real space energy and derivatives                2.9788
  Calculation and manipulation of Hessian matrix                  0.0011
  Calculation of matrix inversion                                 0.0019
  Global summation overhead                                       0.0006
--------------------------------------------------------------------------------
  Total CPU time                                                  3.1300
--------------------------------------------------------------------------------


  Job Finished at 11:04.18 29th May        2024                               

