********************************************************************************
*                       GENERAL UTILITY LATTICE PROGRAM                        *
*                                 Julian Gale                                  *
*                       Curtin Institute for Computation                       *
*                    School of Molecular and Life Sciences                     *
*                    Curtin University, Western Australia                      *
********************************************************************************
* Version = 6.0.0 * Last modified =  12th July 2021                            *
********************************************************************************
*  optimise     - perform optimisation run                                     *
*  conp         - constant pressure calculation                                *
*  conjugate    - use conjugate gradients minimiser                            *
********************************************************************************

  Job Started  at 11:04.18 29th May        2024                               

  Number of CPUs =     1


  Total number of configurations input =      1

********************************************************************************
*  Input for Configuration =   1                                               *
********************************************************************************

  Formula = Ti4O8                                                       

  Number of irreducible atoms/shells =      12


  Total number atoms/shells =      12

  Dimensionality = 3               :  Bulk   



  Cartesian lattice vectors (Angstroms) :

        3.307108    0.000000    0.000000
        0.000000    3.963051    0.000000
        0.000000    0.000000    7.527414

  Cell parameters (Angstroms/Degrees):

  a =       3.3071    alpha =  90.0000
  b =       3.9631    beta  =  90.0000
  c =       7.5274    gamma =  90.0000

  Initial cell volume =          98.656084 Angs**3

  Temperature of configuration =   0.00     K 

  Pressure of configuration =         0.000 GPa 

  Fractional coordinates of asymmetric unit :

--------------------------------------------------------------------------------
   No.  Atomic       x           y          z         Charge      Occupancy
        Label      (Frac)      (Frac)     (Frac)        (e)         (Frac)  
--------------------------------------------------------------------------------
      1 Ti    c    0.000000    0.000000    0.391274     2.19600    1.000000    
      2 Ti    c    0.000000 *  0.500000 *  0.891274 *   2.19600    1.000000    
      3 Ti    c    0.500000 *  0.000000 *  0.949563 *   2.19600    1.000000    
      4 Ti    c    0.500000 *  0.500000 *  0.449563 *   2.19600    1.000000    
      5 O     c    0.000000 *  0.000000 *  0.160985 *  -1.09800    1.000000    
      6 O     c    0.000000 *  0.500000 *  0.660985 *  -1.09800    1.000000    
      7 O     c    0.565857 *  0.724899 *  0.121943 *  -1.09800    1.000000    
      8 O     c    0.434143 *  0.275101 *  0.121943 *  -1.09800    1.000000    
      9 O     c    0.565857 *  0.775101 *  0.621943 *  -1.09800    1.000000    
     10 O     c    0.434143 *  0.224899 *  0.621943 *  -1.09800    1.000000    
     11 O     c    0.000000 *  0.000000 *  0.883025 *  -1.09800    1.000000    
     12 O     c    0.000000 *  0.500000 *  0.383025 *  -1.09800    1.000000    
--------------------------------------------------------------------------------



********************************************************************************
*  General input information                                                   *
********************************************************************************

  Species output for all configurations : 

--------------------------------------------------------------------------------
  Species    Type    Atomic    Atomic    Charge       Radii (Angs)     Library
                     Number     Mass       (e)     Cova   Ionic  VDW   Symbol
--------------------------------------------------------------------------------
    Ti       Core       22      47.88   2.196000   1.470  0.000  2.190          
    O        Core        8      16.00  -1.098000   0.730  0.000  1.360          
--------------------------------------------------------------------------------


  Lattice summation method               =    Ewald          (3-D)
                                         =    Parry          (2-D)
                                         =    Saunders et al (1-D)
  Accuracy factor for lattice sums       =   12.000


  Analytic derivatives to be used

  Time limit = Infinity

  Maximum range for interatomic potentials =    100000.000000 Angstroms

  General interatomic potentials :

--------------------------------------------------------------------------------
Atom  Types   Potential      Parameter       Value         Units   Cutoffs(Ang)
  1     2                                                            Min /  Max 
--------------------------------------------------------------------------------
Ti   c Ti   c Buckingham    Buckingham A     31120.100    eV        0.000 15.000
                            Buckingham rho  0.15400000    Ang       
                            Buckingham C     5.2500000    eV*Ang^6  
--------------------------------------------------------------------------------
O    c O    c Buckingham    Buckingham A     11782.700    eV        0.000 15.000
                            Buckingham rho  0.23400000    Ang       
                            Buckingham C     30.220000    eV*Ang^6  
--------------------------------------------------------------------------------
O    c Ti   c Buckingham    Buckingham A     16957.500    eV        0.000 15.000
                            Buckingham rho  0.19400000    Ang       
                            Buckingham C     12.590000    eV*Ang^6  
--------------------------------------------------------------------------------
Ti   c Ti   c Lennard       Lennard-Jones A  1.0000000    eV*Ang^m  0.000 15.000
                            Lennard-Jones B  0.0000000    eV*Ang^n  
                            Exponent m        12          None
                            Exponent n         6          None
--------------------------------------------------------------------------------
O    c O    c Lennard       Lennard-Jones A  1.0000000    eV*Ang^m  0.000 15.000
                            Lennard-Jones B  0.0000000    eV*Ang^n  
                            Exponent m        12          None
                            Exponent n         6          None
--------------------------------------------------------------------------------
O    c Ti   c Lennard       Lennard-Jones A  1.0000000    eV*Ang^m  0.000 15.000
                            Lennard-Jones B  0.0000000    eV*Ang^n  
                            Exponent m        12          None
                            Exponent n         6          None
--------------------------------------------------------------------------------

********************************************************************************
*  Output for configuration   1                                                *
********************************************************************************


  Components of energy : 

--------------------------------------------------------------------------------
  Interatomic potentials     =          50.01427552 eV    
  Monopole - monopole (real) =         -44.60450826 eV    
  Monopole - monopole (recip)=        -106.44561838 eV    
  Monopole - monopole (total)=        -151.05012664 eV    
--------------------------------------------------------------------------------
  Total lattice energy       =        -101.03585112 eV    
--------------------------------------------------------------------------------
  Total lattice energy       =           -9748.4152 kJ/(mole unit cells)
--------------------------------------------------------------------------------


  Number of variables =       39

  Maximum number of calculations  =          1000
  Maximum Hessian update interval =            10
  Maximum step size               =   1.000000000
  Maximum parameter tolerance     =   0.000010000
  Maximum function  tolerance     =   0.000010000
  Maximum gradient  tolerance     =   0.001000000
  Maximum gradient  component     =   0.010000000

  Symmetry not applied to optimisation

  Cell parameters to be optimised using strains

  Conjugate gradient optimiser to be used

  Lower half triangular hessian to be used

  Minimiser to switch to BFGS with exact hessian
  When gradient norm is less than     0.500000

  Start of bulk optimisation :

  Cycle:      0 Energy:      -101.035851  Gnorm:      7.172328  CPU:    0.024
  Cycle:      1 Energy:      -121.836876  Gnorm:      7.358239  CPU:    0.048
  Cycle:      2 Energy:      -134.830683  Gnorm:      2.505592  CPU:    0.079
  Cycle:      3 Energy:      -140.064649  Gnorm:      2.579328  CPU:    0.103
  Cycle:      4 Energy:      -142.750781  Gnorm:      2.097222  CPU:    0.121
  Cycle:      5 Energy:      -144.472254  Gnorm:      1.918431  CPU:    0.144
  Cycle:      6 Energy:      -147.582886  Gnorm:      2.813926  CPU:    0.169
  Cycle:      7 Energy:      -149.115742  Gnorm:      2.744102  CPU:    0.194
  Cycle:      8 Energy:      -151.683138  Gnorm:      1.396227  CPU:    0.219
  Cycle:      9 Energy:      -154.376703  Gnorm:      1.845445  CPU:    0.244
  Cycle:     10 Energy:      -156.161187  Gnorm:      0.893360  CPU:    0.266
  Cycle:     11 Energy:      -157.438107  Gnorm:      1.010942  CPU:    0.295
  Cycle:     12 Energy:      -158.048461  Gnorm:      0.537403  CPU:    0.318
  Cycle:     13 Energy:      -158.329305  Gnorm:      0.362587  CPU:    0.345
  ** Hessian calculated **
  Cycle:     14 Energy:      -159.063586  Gnorm:      0.170572  CPU:    0.424
  Cycle:     15 Energy:      -159.197465  Gnorm:      0.055617  CPU:    0.446
  Cycle:     16 Energy:      -159.201159  Gnorm:      0.018993  CPU:    0.473
  Cycle:     17 Energy:      -159.201395  Gnorm:      0.005326  CPU:    0.502
  Cycle:     18 Energy:      -159.201427  Gnorm:      0.001386  CPU:    0.525


  **** Optimisation achieved ****


  Final energy =    -159.20142950 eV      
  Final Gnorm  =       0.00036010

  Components of energy : 

--------------------------------------------------------------------------------
  Interatomic potentials     =          12.37930716 eV    
  Monopole - monopole (real) =         -68.43765497 eV    
  Monopole - monopole (recip)=        -103.14308169 eV    
  Monopole - monopole (total)=        -171.58073666 eV    
--------------------------------------------------------------------------------
  Total lattice energy       =        -159.20142950 eV    
--------------------------------------------------------------------------------
  Total lattice energy       =          -15360.5043 kJ/(mole unit cells)
--------------------------------------------------------------------------------

  Final fractional coordinates of atoms :

--------------------------------------------------------------------------------
   No.  Atomic        x           y          z          Radius
        Label       (Frac)      (Frac)     (Frac)       (Angs) 
--------------------------------------------------------------------------------
     1  Ti    c     0.000000    0.000000    0.391274    0.000000
     2  Ti    c     0.000000    0.500000    0.891257    0.000000
     3  Ti    c     0.500000    0.000000    0.891277    0.000000
     4  Ti    c     0.500000    0.500000    0.391261    0.000000
     5  O     c     0.000000    0.000000    0.087997    0.000000
     6  O     c     0.000000    0.500000    0.587970    0.000000
     7  O     c     0.500005    0.696712    0.891260    0.000000
     8  O     c     0.499995    0.303288    0.891260    0.000000
     9  O     c     0.500003    0.803287    0.391273    0.000000
    10  O     c     0.499997    0.196713    0.391273    0.000000
    11  O     c     0.000000    1.000000    0.694563    0.000000
    12  O     c     0.000000    0.500000    0.194540    0.000000
--------------------------------------------------------------------------------

  Final Cartesian lattice vectors (Angstroms) :

        3.008651    0.002264    0.000000
       -0.004786    6.353938   -0.000000
        0.000000   -0.000000    6.353966


  Final cell parameters and derivatives :

--------------------------------------------------------------------------------
       a            3.008651 Angstrom     dE/de1(xx)     0.001571 eV/strain
       b            6.353940 Angstrom     dE/de2(yy)    -0.002937 eV/strain
       c            6.353966 Angstrom     dE/de3(zz)    -0.001556 eV/strain
       alpha       90.000000 Degrees      dE/de4(yz)    -0.000000 eV/strain
       beta        90.000000 Degrees      dE/de5(xz)     0.000000 eV/strain
       gamma       90.000045 Degrees      dE/de6(xy)     0.000005 eV/strain
--------------------------------------------------------------------------------

  Primitive cell volume =           121.467449 Angs**3

  Density of cell =      4.368116 g/cm**3

  Non-primitive cell volume =           121.467449 Angs**3


  Final internal derivatives :

--------------------------------------------------------------------------------
   No.  Atomic          a             b             c           Radius
        Label          (eV)          (eV)          (eV)        (eV/Angs)
--------------------------------------------------------------------------------
      1 Ti    c       0.000000      0.000000      0.000000      0.000000
      2 Ti    c      -0.000000     -0.000000      0.001540      0.000000
      3 Ti    c       0.000000     -0.000000      0.001101      0.000000
      4 Ti    c      -0.000000     -0.000000      0.002246      0.000000
      5 O     c       0.000000     -0.000000      0.009637      0.000000
      6 O     c       0.000000      0.000000     -0.001727      0.000000
      7 O     c       0.000569     -0.004192     -0.001477      0.000000
      8 O     c      -0.000569      0.004192     -0.001477      0.000000
      9 O     c       0.000393      0.002050      0.001315      0.000000
     10 O     c      -0.000393     -0.002050      0.001315      0.000000
     11 O     c      -0.000000     -0.000000     -0.000845      0.000000
     12 O     c      -0.000000      0.000000     -0.005116      0.000000
--------------------------------------------------------------------------------
  Maximum abs         0.000569      0.004192      0.009637      0.000000
--------------------------------------------------------------------------------


  Time to end of optimisation =       0.5472 seconds


  Peak dynamic memory used =       1.84 MB 


  Timing analysis for GULP :

--------------------------------------------------------------------------------
  Task / Subroutine                                          Time (Seconds)
--------------------------------------------------------------------------------
  Calculation of reciprocal space energy and derivatives          0.0236
  Calculation of real space energy and derivatives                0.5105
  Calculation and manipulation of Hessian matrix                  0.0001
  Calculation of matrix inversion                                 0.0002
  Global summation overhead                                       0.0001
--------------------------------------------------------------------------------
  Total CPU time                                                  0.5472
--------------------------------------------------------------------------------


  Job Finished at 11:04.18 29th May        2024                               

