********************************************************************************
*                       GENERAL UTILITY LATTICE PROGRAM                        *
*                                 Julian Gale                                  *
*                       Curtin Institute for Computation                       *
*                    School of Molecular and Life Sciences                     *
*                    Curtin University, Western Australia                      *
********************************************************************************
* Version = 6.0.0 * Last modified =  12th July 2021                            *
********************************************************************************
*  optimise     - perform optimisation run                                     *
*  conp         - constant pressure calculation                                *
*  conjugate    - use conjugate gradients minimiser                            *
********************************************************************************

  Job Started  at 11:03.56 29th May        2024                               

  Number of CPUs =     1


  Total number of configurations input =      1

********************************************************************************
*  Input for Configuration =   1                                               *
********************************************************************************

  Formula = Ti4O8                                                       

  Number of irreducible atoms/shells =      12


  Total number atoms/shells =      12

  Dimensionality = 3               :  Bulk   



  Cartesian lattice vectors (Angstroms) :

        9.369769    0.000000    0.541557
        0.000000    2.687281    0.000000
        0.000000    0.000000    5.635087

  Cell parameters (Angstroms/Degrees):

  a =       9.3854    alpha =  90.0000
  b =       2.6873    beta  =  86.6921
  c =       5.6351    gamma =  90.0000

  Initial cell volume =         141.886974 Angs**3

  Temperature of configuration =   0.00     K 

  Pressure of configuration =         0.000 GPa 

  Fractional coordinates of asymmetric unit :

--------------------------------------------------------------------------------
   No.  Atomic       x           y          z         Charge      Occupancy
        Label      (Frac)      (Frac)     (Frac)        (e)         (Frac)  
--------------------------------------------------------------------------------
      1 Ti    c    0.000000    0.267527    0.250000     2.19600    1.000000    
      2 Ti    c    0.000000 *  0.732473 *  0.750000 *   2.19600    1.000000    
      3 Ti    c    0.500000 *  0.500000 *  0.000000 *   2.19600    1.000000    
      4 Ti    c    0.500000 *  0.500000 *  0.500000 *   2.19600    1.000000    
      5 O     c    0.938455 *  0.577286 *  0.571607 *  -1.09800    1.000000    
      6 O     c    0.061545 *  0.577286 *  0.928393 *  -1.09800    1.000000    
      7 O     c    0.061545 *  0.422714 *  0.428393 *  -1.09800    1.000000    
      8 O     c    0.938455 *  0.422714 *  0.071607 *  -1.09800    1.000000    
      9 O     c    0.500000 *  0.000000 *  0.000000 *  -1.09800    1.000000    
     10 O     c    0.500000 *  0.000000 *  0.500000 *  -1.09800    1.000000    
     11 O     c    0.500000 *  0.220706 *  0.250000 *  -1.09800    1.000000    
     12 O     c    0.500000 *  0.779294 *  0.750000 *  -1.09800    1.000000    
--------------------------------------------------------------------------------



********************************************************************************
*  General input information                                                   *
********************************************************************************

  Species output for all configurations : 

--------------------------------------------------------------------------------
  Species    Type    Atomic    Atomic    Charge       Radii (Angs)     Library
                     Number     Mass       (e)     Cova   Ionic  VDW   Symbol
--------------------------------------------------------------------------------
    Ti       Core       22      47.88   2.196000   1.470  0.000  2.190          
    O        Core        8      16.00  -1.098000   0.730  0.000  1.360          
--------------------------------------------------------------------------------


  Lattice summation method               =    Ewald          (3-D)
                                         =    Parry          (2-D)
                                         =    Saunders et al (1-D)
  Accuracy factor for lattice sums       =   12.000


  Analytic derivatives to be used

  Time limit = Infinity

  Maximum range for interatomic potentials =    100000.000000 Angstroms

  General interatomic potentials :

--------------------------------------------------------------------------------
Atom  Types   Potential      Parameter       Value         Units   Cutoffs(Ang)
  1     2                                                            Min /  Max 
--------------------------------------------------------------------------------
Ti   c Ti   c Buckingham    Buckingham A     31120.100    eV        0.000 15.000
                            Buckingham rho  0.15400000    Ang       
                            Buckingham C     5.2500000    eV*Ang^6  
--------------------------------------------------------------------------------
O    c O    c Buckingham    Buckingham A     11782.700    eV        0.000 15.000
                            Buckingham rho  0.23400000    Ang       
                            Buckingham C     30.220000    eV*Ang^6  
--------------------------------------------------------------------------------
O    c Ti   c Buckingham    Buckingham A     16957.500    eV        0.000 15.000
                            Buckingham rho  0.19400000    Ang       
                            Buckingham C     12.590000    eV*Ang^6  
--------------------------------------------------------------------------------
Ti   c Ti   c Lennard       Lennard-Jones A  1.0000000    eV*Ang^m  0.000 15.000
                            Lennard-Jones B  0.0000000    eV*Ang^n  
                            Exponent m        12          None
                            Exponent n         6          None
--------------------------------------------------------------------------------
O    c O    c Lennard       Lennard-Jones A  1.0000000    eV*Ang^m  0.000 15.000
                            Lennard-Jones B  0.0000000    eV*Ang^n  
                            Exponent m        12          None
                            Exponent n         6          None
--------------------------------------------------------------------------------
O    c Ti   c Lennard       Lennard-Jones A  1.0000000    eV*Ang^m  0.000 15.000
                            Lennard-Jones B  0.0000000    eV*Ang^n  
                            Exponent m        12          None
                            Exponent n         6          None
--------------------------------------------------------------------------------

********************************************************************************
*  Output for configuration   1                                                *
********************************************************************************


  Components of energy : 

--------------------------------------------------------------------------------
  Interatomic potentials     =         269.28144214 eV    
  Monopole - monopole (real) =        -102.52009385 eV    
  Monopole - monopole (recip)=         -97.97302470 eV    
  Monopole - monopole (total)=        -200.49311856 eV    
--------------------------------------------------------------------------------
  Total lattice energy       =          68.78832358 eV    
--------------------------------------------------------------------------------
  Total lattice energy       =            6637.0217 kJ/(mole unit cells)
--------------------------------------------------------------------------------


  Number of variables =       39

  Maximum number of calculations  =          1000
  Maximum Hessian update interval =            10
  Maximum step size               =   1.000000000
  Maximum parameter tolerance     =   0.000010000
  Maximum function  tolerance     =   0.000010000
  Maximum gradient  tolerance     =   0.001000000
  Maximum gradient  component     =   0.010000000

  Symmetry not applied to optimisation

  Cell parameters to be optimised using strains

  Conjugate gradient optimiser to be used

  Lower half triangular hessian to be used

  Minimiser to switch to BFGS with exact hessian
  When gradient norm is less than     0.500000

  Start of bulk optimisation :

  Cycle:      0 Energy:        68.788324  Gnorm:     68.839283  CPU:    0.020
  Cycle:      1 Energy:       -65.096291  Gnorm:     12.517829  CPU:    0.050
  Cycle:      2 Energy:      -129.028456  Gnorm:      4.529527  CPU:    0.071
  Cycle:      3 Energy:      -133.142387  Gnorm:      1.719360  CPU:    0.085
  Cycle:      4 Energy:      -138.950513  Gnorm:      1.285989  CPU:    0.104
  Cycle:      5 Energy:      -139.689641  Gnorm:      0.702670  CPU:    0.120
  Cycle:      6 Energy:      -140.597126  Gnorm:      0.487324  CPU:    0.138
  ** Hessian calculated **
  Cycle:      7 Energy:      -141.072445  Gnorm:      0.684851  CPU:    0.177
  Cycle:      8 Energy:      -141.401507  Gnorm:      0.760143  CPU:    0.194
  Cycle:      9 Energy:      -143.602934  Gnorm:      0.846307  CPU:    0.220
  ** Hessian calculated **
  Cycle:     10 Energy:      -144.338388  Gnorm:      0.450150  CPU:    0.268
  ** Hessian calculated **
  Cycle:     11 Energy:      -144.847196  Gnorm:      0.622690  CPU:    0.312
  Cycle:     12 Energy:      -145.218621  Gnorm:      0.625875  CPU:    0.332
  Cycle:     13 Energy:      -145.439943  Gnorm:      0.494506  CPU:    0.358
  Cycle:     14 Energy:      -145.994148  Gnorm:      0.298603  CPU:    0.381
  Cycle:     15 Energy:      -146.255070  Gnorm:      0.388141  CPU:    0.403
  Cycle:     16 Energy:      -146.731269  Gnorm:      0.405261  CPU:    0.429
  Cycle:     17 Energy:      -147.174896  Gnorm:      0.956990  CPU:    0.451
  Cycle:     18 Energy:      -147.604487  Gnorm:      0.607075  CPU:    0.477
  Cycle:     19 Energy:      -147.939103  Gnorm:      0.378932  CPU:    0.504
  Cycle:     20 Energy:      -148.193034  Gnorm:      0.457111  CPU:    0.532
  ** Hessian calculated **
  Cycle:     21 Energy:      -148.576384  Gnorm:      0.560965  CPU:    0.589
  Cycle:     22 Energy:      -149.837472  Gnorm:      1.241375  CPU:    0.622
  Cycle:     23 Energy:      -151.337128  Gnorm:      1.501660  CPU:    0.647
  Cycle:     24 Energy:      -152.839761  Gnorm:      1.405071  CPU:    0.677
  Cycle:     25 Energy:      -153.677074  Gnorm:      0.477060  CPU:    0.706
  Cycle:     26 Energy:      -154.105113  Gnorm:      0.625770  CPU:    0.736
  Cycle:     27 Energy:      -154.630847  Gnorm:      0.440776  CPU:    0.765
  Cycle:     28 Energy:      -154.883719  Gnorm:      0.214401  CPU:    0.790
  Cycle:     29 Energy:      -154.938276  Gnorm:      0.139307  CPU:    0.820
  Cycle:     30 Energy:      -154.955815  Gnorm:      0.136853  CPU:    0.845
  ** Hessian calculated **
  Cycle:     31 Energy:      -154.975632  Gnorm:      0.014820  CPU:    0.913
  Cycle:     32 Energy:      -154.976101  Gnorm:      0.007341  CPU:    0.943
  Cycle:     33 Energy:      -154.976310  Gnorm:      0.003730  CPU:    0.973
  Cycle:     34 Energy:      -154.976324  Gnorm:      0.001898  CPU:    0.997
  Cycle:     35 Energy:      -154.976328  Gnorm:      0.001940  CPU:    1.027
  Cycle:     36 Energy:      -154.976331  Gnorm:      0.000845  CPU:    1.057
  Cycle:     37 Energy:      -154.976331  Gnorm:      0.000571  CPU:    1.087
  ** Hessian calculated **
  Cycle:     38 Energy:      -154.976331  Gnorm:      0.000574  CPU:    1.187
  ** Hessian calculated **


  **** Optimisation achieved ****


  Final energy =    -154.97633117 eV      
  Final Gnorm  =       0.00057661

  Components of energy : 

--------------------------------------------------------------------------------
  Interatomic potentials     =          12.79473598 eV    
  Monopole - monopole (real) =         -66.76989277 eV    
  Monopole - monopole (recip)=        -101.00117438 eV    
  Monopole - monopole (total)=        -167.77106715 eV    
--------------------------------------------------------------------------------
  Total lattice energy       =        -154.97633117 eV    
--------------------------------------------------------------------------------
  Total lattice energy       =          -14952.8469 kJ/(mole unit cells)
--------------------------------------------------------------------------------

  Final fractional coordinates of atoms :

--------------------------------------------------------------------------------
   No.  Atomic        x           y          z          Radius
        Label       (Frac)      (Frac)     (Frac)       (Angs) 
--------------------------------------------------------------------------------
     1  Ti    c     0.000000    0.267527    0.250000    0.000000
     2  Ti    c     1.000000    0.800824    0.749979    0.000000
     3  Ti    c     0.502178    0.334425    0.001111    0.000000
     4  Ti    c     0.497821    0.334449    0.498939    0.000000
     5  O     c     0.000007    0.299122    0.550865    0.000000
     6  O     c     0.000000    0.299127    0.949086    0.000000
     7  O     c     0.217649    0.766423    0.358900    0.000000
     8  O     c     0.782350    0.766440    0.141249    0.000000
     9  O     c     0.305033    0.821652    0.902399    0.000000
    10  O     c     0.694968    0.821660    0.597361    0.000000
    11  O     c     0.499723    0.286004    0.249888    0.000000
    12  O     c     0.500289    0.285988    0.750169    0.000000
--------------------------------------------------------------------------------

  Final Cartesian lattice vectors (Angstroms) :

        6.948203    0.000035   -1.261830
        0.000018    2.959989    0.000021
       -2.398305    0.000032    6.662591


  Final cell parameters and derivatives :

--------------------------------------------------------------------------------
       a            7.061851 Angstrom     dE/de1(xx)    -0.000275 eV/strain
       b            2.959989 Angstrom     dE/de2(yy)     0.001095 eV/strain
       c            7.081101 Angstrom     dE/de3(zz)     0.009518 eV/strain
       alpha       89.999484 Degrees      dE/de4(yz)     0.000086 eV/strain
       beta       120.090172 Degrees      dE/de5(xz)    -0.004463 eV/strain
       gamma       89.999438 Degrees      dE/de6(xy)     0.000276 eV/strain
--------------------------------------------------------------------------------

  Primitive cell volume =           128.069220 Angs**3

  Density of cell =      4.142946 g/cm**3

  Non-primitive cell volume =           128.069220 Angs**3


  Final internal derivatives :

--------------------------------------------------------------------------------
   No.  Atomic          a             b             c           Radius
        Label          (eV)          (eV)          (eV)        (eV/Angs)
--------------------------------------------------------------------------------
      1 Ti    c       0.000000      0.000000      0.000000      0.000000
      2 Ti    c      -0.000538      0.000459     -0.000519      0.000000
      3 Ti    c       0.005078      0.000734     -0.013194      0.000000
      4 Ti    c      -0.006143     -0.000280      0.010467      0.000000
      5 O     c       0.000396     -0.000093      0.000249      0.000000
      6 O     c       0.000344     -0.000022      0.000191      0.000000
      7 O     c      -0.001481     -0.000570     -0.000504      0.000000
      8 O     c       0.001152     -0.000418      0.000470      0.000000
      9 O     c       0.001771     -0.000569      0.001216      0.000000
     10 O     c      -0.001153     -0.000053     -0.003217      0.000000
     11 O     c      -0.000238      0.000420      0.004758      0.000000
     12 O     c       0.000279      0.000849     -0.000358      0.000000
--------------------------------------------------------------------------------
  Maximum abs         0.006143      0.000849      0.013194      0.000000
--------------------------------------------------------------------------------


  Time to end of optimisation =       1.2876 seconds


  Peak dynamic memory used =       1.84 MB 


  Timing analysis for GULP :

--------------------------------------------------------------------------------
  Task / Subroutine                                          Time (Seconds)
--------------------------------------------------------------------------------
  Calculation of reciprocal space energy and derivatives          0.0672
  Calculation of real space energy and derivatives                1.2011
  Calculation and manipulation of Hessian matrix                  0.0008
  Calculation of matrix inversion                                 0.0014
  Global summation overhead                                       0.0003
--------------------------------------------------------------------------------
  Total CPU time                                                  1.2877
--------------------------------------------------------------------------------


  Job Finished at 11:03.57 29th May        2024                               

