********************************************************************************
*                       GENERAL UTILITY LATTICE PROGRAM                        *
*                                 Julian Gale                                  *
*                       Curtin Institute for Computation                       *
*                    School of Molecular and Life Sciences                     *
*                    Curtin University, Western Australia                      *
********************************************************************************
* Version = 6.0.0 * Last modified =  12th July 2021                            *
********************************************************************************
*  optimise     - perform optimisation run                                     *
*  conp         - constant pressure calculation                                *
*  conjugate    - use conjugate gradients minimiser                            *
********************************************************************************

  Job Started  at 11:03.42 29th May        2024                               

  Number of CPUs =     1


  Total number of configurations input =      1

********************************************************************************
*  Input for Configuration =   1                                               *
********************************************************************************

  Formula = Ti4O8                                                       

  Number of irreducible atoms/shells =      12


  Total number atoms/shells =      12

  Dimensionality = 3               :  Bulk   



  Cartesian lattice vectors (Angstroms) :

        4.722260    0.000000   -3.381271
        0.000000    6.540036    0.000000
        0.000000    0.000000    5.082005

  Cell parameters (Angstroms/Degrees):

  a =       5.8080    alpha =  90.0000
  b =       6.5400    beta  = 125.6037
  c =       5.0820    gamma =  90.0000

  Initial cell volume =         156.951372 Angs**3

  Temperature of configuration =   0.00     K 

  Pressure of configuration =         0.000 GPa 

  Fractional coordinates of asymmetric unit :

--------------------------------------------------------------------------------
   No.  Atomic       x           y          z         Charge      Occupancy
        Label      (Frac)      (Frac)     (Frac)        (e)         (Frac)  
--------------------------------------------------------------------------------
      1 Ti    c    0.169264    0.754226    0.794239     2.19600    1.000000    
      2 Ti    c    0.830736 *  0.254226 *  0.205761 *   2.19600    1.000000    
      3 Ti    c    0.721893 *  0.666883 *  0.165028 *   2.19600    1.000000    
      4 Ti    c    0.278107 *  0.166883 *  0.834972 *   2.19600    1.000000    
      5 O     c    0.509760 *  0.941913 *  0.262874 *  -1.09800    1.000000    
      6 O     c    0.490240 *  0.441913 *  0.737126 *  -1.09800    1.000000    
      7 O     c    0.379347 *  0.245001 *  0.619141 *  -1.09800    1.000000    
      8 O     c    0.620653 *  0.745001 *  0.380859 *  -1.09800    1.000000    
      9 O     c    0.597293 *  0.967895 *  0.761488 *  -1.09800    1.000000    
     10 O     c    0.402707 *  0.467895 *  0.238512 *  -1.09800    1.000000    
     11 O     c    0.350583 *  0.937439 *  0.023118 *  -1.09800    1.000000    
     12 O     c    0.649417 *  0.437439 *  0.976882 *  -1.09800    1.000000    
--------------------------------------------------------------------------------



********************************************************************************
*  General input information                                                   *
********************************************************************************

  Species output for all configurations : 

--------------------------------------------------------------------------------
  Species    Type    Atomic    Atomic    Charge       Radii (Angs)     Library
                     Number     Mass       (e)     Cova   Ionic  VDW   Symbol
--------------------------------------------------------------------------------
    Ti       Core       22      47.88   2.196000   1.470  0.000  2.190          
    O        Core        8      16.00  -1.098000   0.730  0.000  1.360          
--------------------------------------------------------------------------------


  Lattice summation method               =    Ewald          (3-D)
                                         =    Parry          (2-D)
                                         =    Saunders et al (1-D)
  Accuracy factor for lattice sums       =   12.000


  Analytic derivatives to be used

  Time limit = Infinity

  Maximum range for interatomic potentials =    100000.000000 Angstroms

  General interatomic potentials :

--------------------------------------------------------------------------------
Atom  Types   Potential      Parameter       Value         Units   Cutoffs(Ang)
  1     2                                                            Min /  Max 
--------------------------------------------------------------------------------
Ti   c Ti   c Buckingham    Buckingham A     31120.100    eV        0.000 15.000
                            Buckingham rho  0.15400000    Ang       
                            Buckingham C     5.2500000    eV*Ang^6  
--------------------------------------------------------------------------------
O    c O    c Buckingham    Buckingham A     11782.700    eV        0.000 15.000
                            Buckingham rho  0.23400000    Ang       
                            Buckingham C     30.220000    eV*Ang^6  
--------------------------------------------------------------------------------
O    c Ti   c Buckingham    Buckingham A     16957.500    eV        0.000 15.000
                            Buckingham rho  0.19400000    Ang       
                            Buckingham C     12.590000    eV*Ang^6  
--------------------------------------------------------------------------------
Ti   c Ti   c Lennard       Lennard-Jones A  1.0000000    eV*Ang^m  0.000 15.000
                            Lennard-Jones B  0.0000000    eV*Ang^n  
                            Exponent m        12          None
                            Exponent n         6          None
--------------------------------------------------------------------------------
O    c O    c Lennard       Lennard-Jones A  1.0000000    eV*Ang^m  0.000 15.000
                            Lennard-Jones B  0.0000000    eV*Ang^n  
                            Exponent m        12          None
                            Exponent n         6          None
--------------------------------------------------------------------------------
O    c Ti   c Lennard       Lennard-Jones A  1.0000000    eV*Ang^m  0.000 15.000
                            Lennard-Jones B  0.0000000    eV*Ang^n  
                            Exponent m        12          None
                            Exponent n         6          None
--------------------------------------------------------------------------------

********************************************************************************
*  Output for configuration   1                                                *
********************************************************************************


  Components of energy : 

--------------------------------------------------------------------------------
  Interatomic potentials     =         331.52514861 eV    
  Monopole - monopole (real) =         -23.26637356 eV    
  Monopole - monopole (recip)=         -88.89873911 eV    
  Monopole - monopole (total)=        -112.16511267 eV    
--------------------------------------------------------------------------------
  Total lattice energy       =         219.36003593 eV    
--------------------------------------------------------------------------------
  Total lattice energy       =           21164.8902 kJ/(mole unit cells)
--------------------------------------------------------------------------------


  Number of variables =       39

  Maximum number of calculations  =          1000
  Maximum Hessian update interval =            10
  Maximum step size               =   1.000000000
  Maximum parameter tolerance     =   0.000010000
  Maximum function  tolerance     =   0.000010000
  Maximum gradient  tolerance     =   0.001000000
  Maximum gradient  component     =   0.010000000

  Symmetry not applied to optimisation

  Cell parameters to be optimised using strains

  Conjugate gradient optimiser to be used

  Lower half triangular hessian to be used

  Minimiser to switch to BFGS with exact hessian
  When gradient norm is less than     0.500000

  Start of bulk optimisation :

  Cycle:      0 Energy:       219.360036  Gnorm:    103.502500  CPU:    0.022
  Cycle:      1 Energy:       -76.613498  Gnorm:     12.258314  CPU:    0.068
  Cycle:      2 Energy:      -103.740260  Gnorm:      7.933287  CPU:    0.098
  Cycle:      3 Energy:      -116.305664  Gnorm:      5.438715  CPU:    0.121
  Cycle:      4 Energy:      -125.465115  Gnorm:      4.069612  CPU:    0.144
  Cycle:      5 Energy:      -131.439396  Gnorm:      2.184142  CPU:    0.166
  Cycle:      6 Energy:      -134.129103  Gnorm:      3.204249  CPU:    0.188
  Cycle:      7 Energy:      -138.036650  Gnorm:      2.279957  CPU:    0.211
  Cycle:      8 Energy:      -140.297399  Gnorm:      1.441517  CPU:    0.230
  Cycle:      9 Energy:      -141.674980  Gnorm:      1.781060  CPU:    0.253
  Cycle:     10 Energy:      -142.576093  Gnorm:      0.912430  CPU:    0.272
  Cycle:     11 Energy:      -143.484283  Gnorm:      1.586495  CPU:    0.296
  Cycle:     12 Energy:      -145.991879  Gnorm:      1.355038  CPU:    0.323
  Cycle:     13 Energy:      -147.281771  Gnorm:      1.163771  CPU:    0.345
  Cycle:     14 Energy:      -148.105258  Gnorm:      1.184042  CPU:    0.367
  Cycle:     15 Energy:      -149.346127  Gnorm:      0.947876  CPU:    0.393
  Cycle:     16 Energy:      -149.651770  Gnorm:      0.868273  CPU:    0.416
  Cycle:     17 Energy:      -150.114049  Gnorm:      0.909499  CPU:    0.443
  Cycle:     18 Energy:      -150.773435  Gnorm:      1.037278  CPU:    0.475
  Cycle:     19 Energy:      -151.678936  Gnorm:      1.096501  CPU:    0.517
  Cycle:     20 Energy:      -152.118070  Gnorm:      0.786107  CPU:    0.555
  Cycle:     21 Energy:      -152.648164  Gnorm:      0.699311  CPU:    0.601
  Cycle:     22 Energy:      -152.910028  Gnorm:      0.550078  CPU:    0.639
  Cycle:     23 Energy:      -153.266772  Gnorm:      0.744555  CPU:    0.686
  Cycle:     24 Energy:      -153.719334  Gnorm:      0.823600  CPU:    0.725
  Cycle:     25 Energy:      -154.045344  Gnorm:      0.758796  CPU:    0.765
  Cycle:     26 Energy:      -154.421801  Gnorm:      0.674625  CPU:    0.805
  Cycle:     27 Energy:      -154.811612  Gnorm:      0.692386  CPU:    0.855
  Cycle:     28 Energy:      -155.237222  Gnorm:      0.790125  CPU:    0.906
  Cycle:     29 Energy:      -155.631275  Gnorm:      0.841362  CPU:    0.948
  Cycle:     30 Energy:      -155.915363  Gnorm:      0.659946  CPU:    0.990
  Cycle:     31 Energy:      -156.251214  Gnorm:      0.768655  CPU:    1.042
  Cycle:     32 Energy:      -156.638383  Gnorm:      0.702204  CPU:    1.084
  Cycle:     33 Energy:      -156.981864  Gnorm:      0.557116  CPU:    1.139
  Cycle:     34 Energy:      -157.247554  Gnorm:      0.550904  CPU:    1.193
  Cycle:     35 Energy:      -157.448563  Gnorm:      0.303447  CPU:    1.237
  ** Hessian calculated **
  Cycle:     36 Energy:      -157.924664  Gnorm:      0.154972  CPU:    1.344
  Cycle:     37 Energy:      -157.968180  Gnorm:      0.094824  CPU:    1.398
  Cycle:     38 Energy:      -157.978816  Gnorm:      0.033997  CPU:    1.452
  Cycle:     39 Energy:      -157.982466  Gnorm:      0.028324  CPU:    1.507
  Cycle:     40 Energy:      -157.983983  Gnorm:      0.013689  CPU:    1.553
  Cycle:     41 Energy:      -157.984263  Gnorm:      0.005462  CPU:    1.597
  Cycle:     42 Energy:      -157.984310  Gnorm:      0.002602  CPU:    1.642
  Cycle:     43 Energy:      -157.984317  Gnorm:      0.000774  CPU:    1.687


  **** Optimisation achieved ****


  Final energy =    -157.98431796 eV      
  Final Gnorm  =       0.00024292

  Components of energy : 

--------------------------------------------------------------------------------
  Interatomic potentials     =          12.75919722 eV    
  Monopole - monopole (real) =         -71.51001566 eV    
  Monopole - monopole (recip)=         -99.23349952 eV    
  Monopole - monopole (total)=        -170.74351518 eV    
--------------------------------------------------------------------------------
  Total lattice energy       =        -157.98431796 eV    
--------------------------------------------------------------------------------
  Total lattice energy       =          -15243.0717 kJ/(mole unit cells)
--------------------------------------------------------------------------------

  Final fractional coordinates of atoms :

--------------------------------------------------------------------------------
   No.  Atomic        x           y          z          Radius
        Label       (Frac)      (Frac)     (Frac)       (Angs) 
--------------------------------------------------------------------------------
     1  Ti    c     0.169264    0.754226    0.794239    0.000000
     2  Ti    c     0.919265    0.129236    0.044236    0.000000
     3  Ti    c     0.919263    0.629234    0.044240    0.000000
     4  Ti    c     0.169261    0.254224    0.794234    0.000000
     5  O     c     0.711204    0.233249    0.252279    0.000000
     6  O     c     0.377318    0.650207    0.586194    0.000000
     7  O     c     0.377317    0.150210    0.586185    0.000000
     8  O     c     0.711216    0.733252    0.252302    0.000000
     9  O     c     0.961220    0.858260    0.002310    0.000000
    10  O     c     0.127304    0.525201    0.836179    0.000000
    11  O     c     0.127303    0.025202    0.836179    0.000000
    12  O     c     0.961211    0.358260    0.002288    0.000000
--------------------------------------------------------------------------------

  Final Cartesian lattice vectors (Angstroms) :

        3.732936    1.002703   -3.880022
        0.491182    7.416295   -1.275414
       -0.274787   -0.973356    5.382560


  Final cell parameters and derivatives :

--------------------------------------------------------------------------------
       a            5.476750 Angstrom     dE/de1(xx)    -0.002245 eV/strain
       b            7.541178 Angstrom     dE/de2(yy)    -0.001949 eV/strain
       c            5.476758 Angstrom     dE/de3(zz)    -0.001850 eV/strain
       alpha      110.137075 Degrees      dE/de4(yz)    -0.000727 eV/strain
       beta       139.729802 Degrees      dE/de5(xz)    -0.000609 eV/strain
       gamma       69.863092 Degrees      dE/de6(xy)     0.000037 eV/strain
--------------------------------------------------------------------------------

  Primitive cell volume =           136.027940 Angs**3

  Density of cell =      3.900551 g/cm**3

  Non-primitive cell volume =           136.027940 Angs**3


  Final internal derivatives :

--------------------------------------------------------------------------------
   No.  Atomic          a             b             c           Radius
        Label          (eV)          (eV)          (eV)        (eV/Angs)
--------------------------------------------------------------------------------
      1 Ti    c       0.000000      0.000000      0.000000      0.000000
      2 Ti    c       0.002468      0.002055     -0.002362      0.000000
      3 Ti    c      -0.000972     -0.001812     -0.000267      0.000000
      4 Ti    c       0.000377     -0.000989      0.001392      0.000000
      5 O     c      -0.000554     -0.000347     -0.002099      0.000000
      6 O     c      -0.000180     -0.000281      0.000898      0.000000
      7 O     c       0.000252     -0.000197      0.000612      0.000000
      8 O     c       0.000806     -0.000404      0.002260      0.000000
      9 O     c      -0.002513     -0.001232      0.003267      0.000000
     10 O     c      -0.001962     -0.002695      0.001348      0.000000
     11 O     c      -0.001503      0.000480      0.000847      0.000000
     12 O     c       0.000759      0.002178     -0.001111      0.000000
--------------------------------------------------------------------------------
  Maximum abs         0.002513      0.002695      0.003267      0.000000
--------------------------------------------------------------------------------


  Time to end of optimisation =       1.7420 seconds


  Peak dynamic memory used =       1.84 MB 


  Timing analysis for GULP :

--------------------------------------------------------------------------------
  Task / Subroutine                                          Time (Seconds)
--------------------------------------------------------------------------------
  Calculation of reciprocal space energy and derivatives          0.0530
  Calculation of real space energy and derivatives                1.6709
  Calculation and manipulation of Hessian matrix                  0.0001
  Calculation of matrix inversion                                 0.0002
  Global summation overhead                                       0.0003
--------------------------------------------------------------------------------
  Total CPU time                                                  1.7421
--------------------------------------------------------------------------------


  Job Finished at 11:03.44 29th May        2024                               

