********************************************************************************
*                       GENERAL UTILITY LATTICE PROGRAM                        *
*                                 Julian Gale                                  *
*                       Curtin Institute for Computation                       *
*                    School of Molecular and Life Sciences                     *
*                    Curtin University, Western Australia                      *
********************************************************************************
* Version = 6.0.0 * Last modified =  12th July 2021                            *
********************************************************************************
*  optimise     - perform optimisation run                                     *
*  conp         - constant pressure calculation                                *
*  conjugate    - use conjugate gradients minimiser                            *
********************************************************************************

  Job Started  at 11:04.07 29th May        2024                               

  Number of CPUs =     1


  Total number of configurations input =      1

********************************************************************************
*  Input for Configuration =   1                                               *
********************************************************************************

  Formula = Ti4O8                                                       

  Number of irreducible atoms/shells =      12


  Total number atoms/shells =      12

  Dimensionality = 3               :  Bulk   



  Cartesian lattice vectors (Angstroms) :

        5.580792    0.000000    0.000000
        0.000000    7.306464    0.000000
        0.000000    0.000000    5.139088

  Cell parameters (Angstroms/Degrees):

  a =       5.5808    alpha =  90.0000
  b =       7.3065    beta  =  90.0000
  c =       5.1391    gamma =  90.0000

  Initial cell volume =         209.550685 Angs**3

  Temperature of configuration =   0.00     K 

  Pressure of configuration =         0.000 GPa 

  Fractional coordinates of asymmetric unit :

--------------------------------------------------------------------------------
   No.  Atomic       x           y          z         Charge      Occupancy
        Label      (Frac)      (Frac)     (Frac)        (e)         (Frac)  
--------------------------------------------------------------------------------
      1 Ti    c    0.769865    0.633915    0.441729     2.19600    1.000000    
      2 Ti    c    0.230135 *  0.366085 *  0.441729 *   2.19600    1.000000    
      3 Ti    c    0.769865 *  0.366085 *  0.441729 *   2.19600    1.000000    
      4 Ti    c    0.230135 *  0.633915 *  0.441729 *   2.19600    1.000000    
      5 O     c    0.500000 *  0.576457 *  0.674213 *  -1.09800    1.000000    
      6 O     c    0.500000 *  0.423543 *  0.674213 *  -1.09800    1.000000    
      7 O     c    0.000000 *  0.839941 *  0.634818 *  -1.09800    1.000000    
      8 O     c    0.000000 *  0.160059 *  0.634818 *  -1.09800    1.000000    
      9 O     c    0.590825 *  0.186211 *  0.298697 *  -1.09800    1.000000    
     10 O     c    0.409175 *  0.813789 *  0.298697 *  -1.09800    1.000000    
     11 O     c    0.590825 *  0.813789 *  0.298697 *  -1.09800    1.000000    
     12 O     c    0.409175 *  0.186211 *  0.298697 *  -1.09800    1.000000    
--------------------------------------------------------------------------------



********************************************************************************
*  General input information                                                   *
********************************************************************************

  Species output for all configurations : 

--------------------------------------------------------------------------------
  Species    Type    Atomic    Atomic    Charge       Radii (Angs)     Library
                     Number     Mass       (e)     Cova   Ionic  VDW   Symbol
--------------------------------------------------------------------------------
    Ti       Core       22      47.88   2.196000   1.470  0.000  2.190          
    O        Core        8      16.00  -1.098000   0.730  0.000  1.360          
--------------------------------------------------------------------------------


  Lattice summation method               =    Ewald          (3-D)
                                         =    Parry          (2-D)
                                         =    Saunders et al (1-D)
  Accuracy factor for lattice sums       =   12.000


  Analytic derivatives to be used

  Time limit = Infinity

  Maximum range for interatomic potentials =    100000.000000 Angstroms

  General interatomic potentials :

--------------------------------------------------------------------------------
Atom  Types   Potential      Parameter       Value         Units   Cutoffs(Ang)
  1     2                                                            Min /  Max 
--------------------------------------------------------------------------------
Ti   c Ti   c Buckingham    Buckingham A     31120.100    eV        0.000 15.000
                            Buckingham rho  0.15400000    Ang       
                            Buckingham C     5.2500000    eV*Ang^6  
--------------------------------------------------------------------------------
O    c O    c Buckingham    Buckingham A     11782.700    eV        0.000 15.000
                            Buckingham rho  0.23400000    Ang       
                            Buckingham C     30.220000    eV*Ang^6  
--------------------------------------------------------------------------------
O    c Ti   c Buckingham    Buckingham A     16957.500    eV        0.000 15.000
                            Buckingham rho  0.19400000    Ang       
                            Buckingham C     12.590000    eV*Ang^6  
--------------------------------------------------------------------------------
Ti   c Ti   c Lennard       Lennard-Jones A  1.0000000    eV*Ang^m  0.000 15.000
                            Lennard-Jones B  0.0000000    eV*Ang^n  
                            Exponent m        12          None
                            Exponent n         6          None
--------------------------------------------------------------------------------
O    c O    c Lennard       Lennard-Jones A  1.0000000    eV*Ang^m  0.000 15.000
                            Lennard-Jones B  0.0000000    eV*Ang^n  
                            Exponent m        12          None
                            Exponent n         6          None
--------------------------------------------------------------------------------
O    c Ti   c Lennard       Lennard-Jones A  1.0000000    eV*Ang^m  0.000 15.000
                            Lennard-Jones B  0.0000000    eV*Ang^n  
                            Exponent m        12          None
                            Exponent n         6          None
--------------------------------------------------------------------------------

********************************************************************************
*  Output for configuration   1                                                *
********************************************************************************


  Components of energy : 

--------------------------------------------------------------------------------
  Interatomic potentials     =         346.39782253 eV    
  Monopole - monopole (real) =          -5.53645512 eV    
  Monopole - monopole (recip)=         -69.29203854 eV    
  Monopole - monopole (total)=         -74.82849367 eV    
--------------------------------------------------------------------------------
  Total lattice energy       =         271.56932886 eV    
--------------------------------------------------------------------------------
  Total lattice energy       =           26202.2889 kJ/(mole unit cells)
--------------------------------------------------------------------------------


  Number of variables =       39

  Maximum number of calculations  =          1000
  Maximum Hessian update interval =            10
  Maximum step size               =   1.000000000
  Maximum parameter tolerance     =   0.000010000
  Maximum function  tolerance     =   0.000010000
  Maximum gradient  tolerance     =   0.001000000
  Maximum gradient  component     =   0.010000000

  Symmetry not applied to optimisation

  Cell parameters to be optimised using strains

  Conjugate gradient optimiser to be used

  Lower half triangular hessian to be used

  Minimiser to switch to BFGS with exact hessian
  When gradient norm is less than     0.500000

  Start of bulk optimisation :

  Cycle:      0 Energy:       271.569329  Gnorm:    178.699955  CPU:    0.018
  Cycle:      1 Energy:       -76.722971  Gnorm:      7.145259  CPU:    0.048
  Cycle:      2 Energy:      -115.575738  Gnorm:     10.727724  CPU:    0.067
  Cycle:      3 Energy:      -131.726158  Gnorm:      2.993216  CPU:    0.084
  Cycle:      4 Energy:      -135.191829  Gnorm:      1.685302  CPU:    0.100
  Cycle:      5 Energy:      -136.903421  Gnorm:      1.530680  CPU:    0.115
  Cycle:      6 Energy:      -138.580523  Gnorm:      1.039344  CPU:    0.131
  Cycle:      7 Energy:      -139.469080  Gnorm:      0.905499  CPU:    0.146
  Cycle:      8 Energy:      -140.257388  Gnorm:      1.075235  CPU:    0.162
  Cycle:      9 Energy:      -141.625804  Gnorm:      1.239139  CPU:    0.177
  Cycle:     10 Energy:      -143.033031  Gnorm:      1.300080  CPU:    0.191
  Cycle:     11 Energy:      -143.676826  Gnorm:      1.828338  CPU:    0.204
  Cycle:     12 Energy:      -144.820276  Gnorm:      1.360761  CPU:    0.220
  Cycle:     13 Energy:      -145.731986  Gnorm:      1.687592  CPU:    0.238
  Cycle:     14 Energy:      -146.579965  Gnorm:      1.183766  CPU:    0.252
  Cycle:     15 Energy:      -147.030113  Gnorm:      0.704798  CPU:    0.270
  Cycle:     16 Energy:      -147.338290  Gnorm:      0.630564  CPU:    0.287
  Cycle:     17 Energy:      -147.498249  Gnorm:      0.364777  CPU:    0.302
  ** Hessian calculated **
  Cycle:     18 Energy:      -147.880391  Gnorm:      0.705698  CPU:    0.347
  Cycle:     19 Energy:      -148.431552  Gnorm:      0.975880  CPU:    0.372
  ** Hessian calculated **
  Cycle:     20 Energy:      -148.899666  Gnorm:      0.596342  CPU:    0.425
  Cycle:     21 Energy:      -149.437931  Gnorm:      0.651308  CPU:    0.454
  Cycle:     22 Energy:      -150.163807  Gnorm:      0.799313  CPU:    0.492
  Cycle:     23 Energy:      -150.464128  Gnorm:      0.941214  CPU:    0.519
  Cycle:     24 Energy:      -151.064190  Gnorm:      0.572119  CPU:    0.553
  Cycle:     25 Energy:      -152.044333  Gnorm:      0.896326  CPU:    0.589
  Cycle:     26 Energy:      -152.444968  Gnorm:      0.910725  CPU:    0.619
  Cycle:     27 Energy:      -153.009059  Gnorm:      0.790089  CPU:    0.656
  Cycle:     28 Energy:      -153.631543  Gnorm:      0.955476  CPU:    0.686
  Cycle:     29 Energy:      -154.060412  Gnorm:      0.742483  CPU:    0.717
  ** Hessian calculated **
  Cycle:     30 Energy:      -154.857341  Gnorm:      0.430769  CPU:    0.808
  Cycle:     31 Energy:      -154.989875  Gnorm:      0.387693  CPU:    0.839
  ** Hessian calculated **
  Cycle:     32 Energy:      -155.464382  Gnorm:      0.380685  CPU:    0.925
  ** Hessian calculated **
  Cycle:     33 Energy:      -155.662058  Gnorm:      0.234642  CPU:    0.997
  Cycle:     34 Energy:      -155.722226  Gnorm:      0.245757  CPU:    1.028
  Cycle:     35 Energy:      -155.755467  Gnorm:      0.250178  CPU:    1.059
  Cycle:     36 Energy:      -155.772840  Gnorm:      0.263495  CPU:    1.090
  Cycle:     37 Energy:      -155.773302  Gnorm:      0.250758  CPU:    1.127
  ** Hessian calculated **
  Cycle:     38 Energy:      -155.806702  Gnorm:      0.135935  CPU:    1.196
  Cycle:     39 Energy:      -155.822307  Gnorm:      0.100820  CPU:    1.233
  Cycle:     40 Energy:      -155.834066  Gnorm:      0.074406  CPU:    1.271
  Cycle:     41 Energy:      -155.843649  Gnorm:      0.063254  CPU:    1.308
  Cycle:     42 Energy:      -155.852090  Gnorm:      0.069699  CPU:    1.346
  Cycle:     43 Energy:      -155.861409  Gnorm:      0.095444  CPU:    1.383
  Cycle:     44 Energy:      -155.874127  Gnorm:      0.114667  CPU:    1.420
  Cycle:     45 Energy:      -155.890423  Gnorm:      0.116613  CPU:    1.458
  Cycle:     46 Energy:      -155.905839  Gnorm:      0.122892  CPU:    1.495
  Cycle:     47 Energy:      -155.924382  Gnorm:      0.104350  CPU:    1.532
  ** Hessian calculated **
  Cycle:     48 Energy:      -156.015299  Gnorm:      0.092089  CPU:    1.613
  Cycle:     49 Energy:      -156.039370  Gnorm:      0.040772  CPU:    1.650
  Cycle:     50 Energy:      -156.070096  Gnorm:      0.126212  CPU:    1.695
  Cycle:     51 Energy:      -156.108197  Gnorm:      0.304679  CPU:    1.746
  Cycle:     52 Energy:      -156.124114  Gnorm:      0.392729  CPU:    1.778
  Cycle:     53 Energy:      -156.389904  Gnorm:      0.685204  CPU:    1.824
  Cycle:     54 Energy:      -156.993011  Gnorm:      0.692214  CPU:    1.862
  Cycle:     55 Energy:      -157.433594  Gnorm:      0.546569  CPU:    1.894
  Cycle:     56 Energy:      -157.728310  Gnorm:      0.376849  CPU:    1.925
  Cycle:     57 Energy:      -157.857219  Gnorm:      0.214644  CPU:    1.956
  ** Hessian calculated **
  Cycle:     58 Energy:      -157.980148  Gnorm:      0.039936  CPU:    2.032
  Cycle:     59 Energy:      -157.983731  Gnorm:      0.013225  CPU:    2.070
  Cycle:     60 Energy:      -157.984291  Gnorm:      0.004462  CPU:    2.100
  Cycle:     61 Energy:      -157.984317  Gnorm:      0.000880  CPU:    2.131


  **** Optimisation achieved ****


  Final energy =    -157.98431800 eV      
  Final Gnorm  =       0.00021226

  Components of energy : 

--------------------------------------------------------------------------------
  Interatomic potentials     =          12.75867075 eV    
  Monopole - monopole (real) =         -71.50999332 eV    
  Monopole - monopole (recip)=         -99.23299543 eV    
  Monopole - monopole (total)=        -170.74298875 eV    
--------------------------------------------------------------------------------
  Total lattice energy       =        -157.98431800 eV    
--------------------------------------------------------------------------------
  Total lattice energy       =          -15243.0717 kJ/(mole unit cells)
--------------------------------------------------------------------------------

  Final fractional coordinates of atoms :

--------------------------------------------------------------------------------
   No.  Atomic        x           y          z          Radius
        Label       (Frac)      (Frac)     (Frac)       (Angs) 
--------------------------------------------------------------------------------
     1  Ti    c     0.769865    0.633915    0.441729    0.000000
     2  Ti    c     0.144853    0.133917    0.691720    0.000000
     3  Ti    c     0.644851    0.133921    0.691727    0.000000
     4  Ti    c     0.269863    0.633915    0.441727    0.000000
     5  O     c     0.540835    0.550021    0.315885    0.000000
     6  O     c     0.373878    0.217821    0.817571    0.000000
     7  O     c     0.040837    0.550015    0.315882    0.000000
     8  O     c     0.873881    0.217815    0.817573    0.000000
     9  O     c     0.665824    0.050024    0.065886    0.000000
    10  O     c     0.248891    0.717816    0.067576    0.000000
    11  O     c     0.748888    0.717825    0.067589    0.000000
    12  O     c     0.165826    0.050016    0.065872    0.000000
--------------------------------------------------------------------------------

  Final Cartesian lattice vectors (Angstroms) :

        7.495721    0.820786    0.100578
        1.183319    6.891708   -3.087347
        0.127677   -1.584630    3.419059


  Final cell parameters and derivatives :

--------------------------------------------------------------------------------
       a            7.541196 Angstrom     dE/de1(xx)    -0.000275 eV/strain
       b            7.643794 Angstrom     dE/de2(yy)    -0.000824 eV/strain
       c            3.770586 Angstrom     dE/de3(zz)     0.000198 eV/strain
       alpha      137.724240 Degrees      dE/de4(yz)     0.000490 eV/strain
       beta        89.999449 Degrees      dE/de5(xz)     0.000286 eV/strain
       gamma       75.722489 Degrees      dE/de6(xy)    -0.000167 eV/strain
--------------------------------------------------------------------------------

  Primitive cell volume =           136.030103 Angs**3

  Density of cell =      3.900489 g/cm**3

  Non-primitive cell volume =           136.030103 Angs**3


  Final internal derivatives :

--------------------------------------------------------------------------------
   No.  Atomic          a             b             c           Radius
        Label          (eV)          (eV)          (eV)        (eV/Angs)
--------------------------------------------------------------------------------
      1 Ti    c       0.000000      0.000000      0.000000      0.000000
      2 Ti    c      -0.000389      0.001049     -0.000097      0.000000
      3 Ti    c       0.000165      0.001924     -0.000745      0.000000
      4 Ti    c       0.000108     -0.001483     -0.000076      0.000000
      5 O     c      -0.001649     -0.000057     -0.000090      0.000000
      6 O     c      -0.001330      0.002252     -0.000539      0.000000
      7 O     c       0.002187     -0.001134      0.000405      0.000000
      8 O     c       0.000756     -0.000866      0.000294      0.000000
      9 O     c      -0.000793     -0.002545      0.001746      0.000000
     10 O     c       0.000697      0.001422     -0.000453      0.000000
     11 O     c       0.000305      0.004789     -0.001413      0.000000
     12 O     c      -0.000719     -0.001846      0.000553      0.000000
--------------------------------------------------------------------------------
  Maximum abs         0.002187      0.004789      0.001746      0.000000
--------------------------------------------------------------------------------


  Time to end of optimisation =       2.1622 seconds


  Peak dynamic memory used =       1.84 MB 


  Timing analysis for GULP :

--------------------------------------------------------------------------------
  Task / Subroutine                                          Time (Seconds)
--------------------------------------------------------------------------------
  Calculation of reciprocal space energy and derivatives          0.0903
  Calculation of real space energy and derivatives                2.0471
  Calculation and manipulation of Hessian matrix                  0.0009
  Calculation of matrix inversion                                 0.0015
  Global summation overhead                                       0.0004
--------------------------------------------------------------------------------
  Total CPU time                                                  2.1623
--------------------------------------------------------------------------------


  Job Finished at 11:04.09 29th May        2024                               

