********************************************************************************
*                       GENERAL UTILITY LATTICE PROGRAM                        *
*                                 Julian Gale                                  *
*                       Curtin Institute for Computation                       *
*                    School of Molecular and Life Sciences                     *
*                    Curtin University, Western Australia                      *
********************************************************************************
* Version = 6.0.0 * Last modified =  12th July 2021                            *
********************************************************************************
*  optimise     - perform optimisation run                                     *
*  conp         - constant pressure calculation                                *
*  conjugate    - use conjugate gradients minimiser                            *
********************************************************************************

  Job Started  at 11:17.09 29th May        2024                               

  Number of CPUs =     1


  Total number of configurations input =      1

********************************************************************************
*  Input for Configuration =   1                                               *
********************************************************************************

  Formula = Ti4O8                                                       

  Number of irreducible atoms/shells =      12


  Total number atoms/shells =      12

  Dimensionality = 3               :  Bulk   



  Cartesian lattice vectors (Angstroms) :

        5.798827    0.203003    0.973506
       -0.244775    5.821999   -0.032903
        0.366502    0.091540    4.025645

  Cell parameters (Angstroms/Degrees):

  a =       5.8835    alpha =  89.2442
  b =       5.8272    beta  =  75.2346
  c =       4.0433    gamma =  90.4505

  Initial cell volume =         134.024851 Angs**3

  Temperature of configuration =   0.00     K 

  Pressure of configuration =         0.000 GPa 

  Fractional coordinates of asymmetric unit :

--------------------------------------------------------------------------------
   No.  Atomic       x           y          z         Charge      Occupancy
        Label      (Frac)      (Frac)     (Frac)        (e)         (Frac)  
--------------------------------------------------------------------------------
      1 Ti    c    0.013376    0.113812    0.459192     2.19600    1.000000    
      2 Ti    c    0.489043 *  0.297274 *  0.983510 *   2.19600    1.000000    
      3 Ti    c    0.788729 *  0.646388 *  0.088932 *   2.19600    1.000000    
      4 Ti    c    0.281321 *  0.646390 *  0.088932 *   2.19600    1.000000    
      5 O     c    0.201694 *  0.062818 *  0.110468 *  -1.09800    1.000000    
      6 O     c    0.776427 *  0.062829 *  0.807924 *  -1.09800    1.000000    
      7 O     c    0.252085 *  0.348267 *  0.634788 *  -1.09800    1.000000    
      8 O     c    0.726000 *  0.348259 *  0.283591 *  -1.09800    1.000000    
      9 O     c    0.788729 *  0.846019 *  0.596342 *  -1.09800    1.000000    
     10 O     c    0.081689 *  0.646389 *  0.795971 *  -1.09800    1.000000    
     11 O     c    0.480950 *  0.646389 *  0.396714 *  -1.09800    1.000000    
     12 O     c    0.281320 *  0.954169 *  0.088931 *  -1.09800    1.000000    
--------------------------------------------------------------------------------



********************************************************************************
*  General input information                                                   *
********************************************************************************

  Species output for all configurations : 

--------------------------------------------------------------------------------
  Species    Type    Atomic    Atomic    Charge       Radii (Angs)     Library
                     Number     Mass       (e)     Cova   Ionic  VDW   Symbol
--------------------------------------------------------------------------------
    Ti       Core       22      47.88   2.196000   1.470  0.000  2.190          
    O        Core        8      16.00  -1.098000   0.730  0.000  1.360          
--------------------------------------------------------------------------------


  Lattice summation method               =    Ewald          (3-D)
                                         =    Parry          (2-D)
                                         =    Saunders et al (1-D)
  Accuracy factor for lattice sums       =   12.000


  Analytic derivatives to be used

  Time limit = Infinity

  Maximum range for interatomic potentials =    100000.000000 Angstroms

  General interatomic potentials :

--------------------------------------------------------------------------------
Atom  Types   Potential      Parameter       Value         Units   Cutoffs(Ang)
  1     2                                                            Min /  Max 
--------------------------------------------------------------------------------
Ti   c Ti   c Buckingham    Buckingham A     31120.100    eV        0.000 15.000
                            Buckingham rho  0.15400000    Ang       
                            Buckingham C     5.2500000    eV*Ang^6  
--------------------------------------------------------------------------------
O    c O    c Buckingham    Buckingham A     11782.700    eV        0.000 15.000
                            Buckingham rho  0.23400000    Ang       
                            Buckingham C     30.220000    eV*Ang^6  
--------------------------------------------------------------------------------
O    c Ti   c Buckingham    Buckingham A     16957.500    eV        0.000 15.000
                            Buckingham rho  0.19400000    Ang       
                            Buckingham C     12.590000    eV*Ang^6  
--------------------------------------------------------------------------------
Ti   c Ti   c Lennard       Lennard-Jones A  1.0000000    eV*Ang^m  0.000 15.000
                            Lennard-Jones B  0.0000000    eV*Ang^n  
                            Exponent m        12          None
                            Exponent n         6          None
--------------------------------------------------------------------------------
O    c O    c Lennard       Lennard-Jones A  1.0000000    eV*Ang^m  0.000 15.000
                            Lennard-Jones B  0.0000000    eV*Ang^n  
                            Exponent m        12          None
                            Exponent n         6          None
--------------------------------------------------------------------------------
O    c Ti   c Lennard       Lennard-Jones A  1.0000000    eV*Ang^m  0.000 15.000
                            Lennard-Jones B  0.0000000    eV*Ang^n  
                            Exponent m        12          None
                            Exponent n         6          None
--------------------------------------------------------------------------------

********************************************************************************
*  Output for configuration   1                                                *
********************************************************************************


  Components of energy : 

--------------------------------------------------------------------------------
  Interatomic potentials     =         331.62773542 eV    
  Monopole - monopole (real) =         -40.43722325 eV    
  Monopole - monopole (recip)=         -97.15989109 eV    
  Monopole - monopole (total)=        -137.59711433 eV    
--------------------------------------------------------------------------------
  Total lattice energy       =         194.03062108 eV    
--------------------------------------------------------------------------------
  Total lattice energy       =           18720.9889 kJ/(mole unit cells)
--------------------------------------------------------------------------------


  Number of variables =       39

  Maximum number of calculations  =          1000
  Maximum Hessian update interval =            10
  Maximum step size               =   1.000000000
  Maximum parameter tolerance     =   0.000010000
  Maximum function  tolerance     =   0.000010000
  Maximum gradient  tolerance     =   0.001000000
  Maximum gradient  component     =   0.010000000

  Symmetry not applied to optimisation

  Cell parameters to be optimised using strains

  Conjugate gradient optimiser to be used

  Lower half triangular hessian to be used

  Minimiser to switch to BFGS with exact hessian
  When gradient norm is less than     0.500000

  Start of bulk optimisation :

  Cycle:      0 Energy:       194.030621  Gnorm:    229.679418  CPU:    0.022
  Cycle:      1 Energy:      -108.594015  Gnorm:     16.191850  CPU:    0.045
  Cycle:      2 Energy:      -129.118331  Gnorm:      4.339675  CPU:    0.068
  Cycle:      3 Energy:      -136.180133  Gnorm:      2.089692  CPU:    0.096
  Cycle:      4 Energy:      -140.374552  Gnorm:      1.749282  CPU:    0.123
  Cycle:      5 Energy:      -142.092362  Gnorm:      1.373909  CPU:    0.144
  Cycle:      6 Energy:      -143.081969  Gnorm:      0.995380  CPU:    0.170
  Cycle:      7 Energy:      -144.259505  Gnorm:      1.274090  CPU:    0.196
  Cycle:      8 Energy:      -145.920346  Gnorm:      1.253473  CPU:    0.225
  Cycle:      9 Energy:      -146.618003  Gnorm:      0.959536  CPU:    0.251
  Cycle:     10 Energy:      -147.068049  Gnorm:      0.910780  CPU:    0.282
  Cycle:     11 Energy:      -147.631716  Gnorm:      0.983462  CPU:    0.314
  Cycle:     12 Energy:      -148.395761  Gnorm:      0.942247  CPU:    0.347
  Cycle:     13 Energy:      -149.143742  Gnorm:      1.082582  CPU:    0.379
  Cycle:     14 Energy:      -149.663326  Gnorm:      0.891202  CPU:    0.406
  Cycle:     15 Energy:      -150.236119  Gnorm:      0.740150  CPU:    0.439
  Cycle:     16 Energy:      -150.750200  Gnorm:      0.782853  CPU:    0.473
  Cycle:     17 Energy:      -151.385759  Gnorm:      0.634131  CPU:    0.508
  Cycle:     18 Energy:      -151.703001  Gnorm:      0.448516  CPU:    0.536
  ** Hessian calculated **
  Cycle:     19 Energy:      -152.244328  Gnorm:      0.647788  CPU:    0.608
  Cycle:     20 Energy:      -152.643844  Gnorm:      0.517998  CPU:    0.643
  Cycle:     21 Energy:      -152.902094  Gnorm:      0.354668  CPU:    0.672
  Cycle:     22 Energy:      -153.045688  Gnorm:      0.281412  CPU:    0.697
  Cycle:     23 Energy:      -153.140901  Gnorm:      0.234047  CPU:    0.726
  Cycle:     24 Energy:      -153.246940  Gnorm:      0.279453  CPU:    0.755
  Cycle:     25 Energy:      -153.321816  Gnorm:      0.213627  CPU:    0.779
  Cycle:     26 Energy:      -153.413749  Gnorm:      0.206588  CPU:    0.807
  Cycle:     27 Energy:      -153.490311  Gnorm:      0.206531  CPU:    0.831
  Cycle:     28 Energy:      -153.561670  Gnorm:      0.243066  CPU:    0.861
  ** Hessian calculated **
  Cycle:     29 Energy:      -153.624590  Gnorm:      0.166608  CPU:    0.926
  Cycle:     30 Energy:      -153.672355  Gnorm:      0.183415  CPU:    0.956
  Cycle:     31 Energy:      -153.772747  Gnorm:      0.303619  CPU:    0.991
  Cycle:     32 Energy:      -153.901578  Gnorm:      0.356855  CPU:    1.027
  Cycle:     33 Energy:      -154.207633  Gnorm:      0.400859  CPU:    1.064
  Cycle:     34 Energy:      -154.321541  Gnorm:      0.340466  CPU:    1.101
  Cycle:     35 Energy:      -154.447353  Gnorm:      0.232682  CPU:    1.137
  Cycle:     36 Energy:      -154.600715  Gnorm:      0.367583  CPU:    1.174
  Cycle:     37 Energy:      -154.671769  Gnorm:      0.333950  CPU:    1.203
  Cycle:     38 Energy:      -154.768445  Gnorm:      0.385159  CPU:    1.232
  ** Hessian calculated **
  Cycle:     39 Energy:      -154.848272  Gnorm:      0.266736  CPU:    1.302
  Cycle:     40 Energy:      -154.943304  Gnorm:      0.199765  CPU:    1.339
  Cycle:     41 Energy:      -155.012687  Gnorm:      0.206554  CPU:    1.368
  Cycle:     42 Energy:      -155.112712  Gnorm:      0.267237  CPU:    1.405
  Cycle:     43 Energy:      -155.215364  Gnorm:      0.246150  CPU:    1.441
  Cycle:     44 Energy:      -155.303208  Gnorm:      0.191321  CPU:    1.470
  Cycle:     45 Energy:      -155.345591  Gnorm:      0.168171  CPU:    1.499
  Cycle:     46 Energy:      -155.381778  Gnorm:      0.144900  CPU:    1.528
  Cycle:     47 Energy:      -155.415450  Gnorm:      0.157490  CPU:    1.564
  Cycle:     48 Energy:      -155.450468  Gnorm:      0.159077  CPU:    1.600
  ** Hessian calculated **
  Cycle:     49 Energy:      -155.646815  Gnorm:      0.206670  CPU:    1.688
  Cycle:     50 Energy:      -155.702394  Gnorm:      0.175008  CPU:    1.726
  Cycle:     51 Energy:      -155.727484  Gnorm:      0.078536  CPU:    1.756
  Cycle:     52 Energy:      -155.739773  Gnorm:      0.070615  CPU:    1.794
  Cycle:     53 Energy:      -155.745682  Gnorm:      0.025482  CPU:    1.824
  Cycle:     54 Energy:      -155.747162  Gnorm:      0.015656  CPU:    1.854
  Cycle:     55 Energy:      -155.748065  Gnorm:      0.014143  CPU:    1.891
  Cycle:     56 Energy:      -155.748559  Gnorm:      0.010020  CPU:    1.922
  Cycle:     57 Energy:      -155.748756  Gnorm:      0.005451  CPU:    1.952
  Cycle:     58 Energy:      -155.748802  Gnorm:      0.002780  CPU:    1.983
  ** Hessian calculated **
  Cycle:     59 Energy:      -155.748835  Gnorm:      0.000620  CPU:    2.052


  **** Optimisation achieved ****


  Final energy =    -155.74883662 eV      
  Final Gnorm  =       0.00001061

  Components of energy : 

--------------------------------------------------------------------------------
  Interatomic potentials     =          12.83889788 eV    
  Monopole - monopole (real) =         -67.65941481 eV    
  Monopole - monopole (recip)=        -100.92831968 eV    
  Monopole - monopole (total)=        -168.58773449 eV    
--------------------------------------------------------------------------------
  Total lattice energy       =        -155.74883662 eV    
--------------------------------------------------------------------------------
  Total lattice energy       =          -15027.3819 kJ/(mole unit cells)
--------------------------------------------------------------------------------

  Final fractional coordinates of atoms :

--------------------------------------------------------------------------------
   No.  Atomic        x           y          z          Radius
        Label       (Frac)      (Frac)     (Frac)       (Angs) 
--------------------------------------------------------------------------------
     1  Ti    c     0.013376    0.113812    0.459192    0.000000
     2  Ti    c     0.492350    0.193910    0.980216    0.000000
     3  Ti    c     0.752863    0.653861    0.219704    0.000000
     4  Ti    c     0.252862    0.653861    0.219704    0.000000
     5  O     c     0.256870    0.349671    0.215697    0.000000
     6  O     c     0.949998    0.203027    0.022569    0.000000
     7  O     c     0.555727    0.104695    0.416839    0.000000
     8  O     c     0.687985    0.457838    0.784581    0.000000
     9  O     c     0.817740    0.849884    0.654827    0.000000
    10  O     c     0.055842    0.650282    0.916725    0.000000
    11  O     c     0.449884    0.657440    0.522683    0.000000
    12  O     c     0.248855    0.958051    0.223712    0.000000
--------------------------------------------------------------------------------

  Final Cartesian lattice vectors (Angstroms) :

        7.049018   -0.063747    1.452261
       -0.634684    6.186442   -0.057854
        0.870354    0.118765    3.151662


  Final cell parameters and derivatives :

--------------------------------------------------------------------------------
       a            7.197345 Angstrom     dE/de1(xx)    -0.000048 eV/strain
       b            6.219183 Angstrom     dE/de2(yy)     0.000020 eV/strain
       c            3.271787 Angstrom     dE/de3(zz)    -0.000120 eV/strain
       alpha       90.000014 Degrees      dE/de4(yz)    -0.000020 eV/strain
       beta        62.961891 Degrees      dE/de5(xz)     0.000006 eV/strain
       gamma       96.352034 Degrees      dE/de6(xy)     0.000015 eV/strain
--------------------------------------------------------------------------------

  Primitive cell volume =           129.433863 Angs**3

  Density of cell =      4.099266 g/cm**3

  Non-primitive cell volume =           129.433863 Angs**3


  Final internal derivatives :

--------------------------------------------------------------------------------
   No.  Atomic          a             b             c           Radius
        Label          (eV)          (eV)          (eV)        (eV/Angs)
--------------------------------------------------------------------------------
      1 Ti    c       0.000000      0.000000      0.000000      0.000000
      2 Ti    c       0.000013     -0.000007     -0.000006      0.000000
      3 Ti    c      -0.000025     -0.000018     -0.000004      0.000000
      4 Ti    c      -0.000293     -0.000037     -0.000024      0.000000
      5 O     c      -0.000005     -0.000002      0.000014      0.000000
      6 O     c       0.000014      0.000001     -0.000028      0.000000
      7 O     c      -0.000036     -0.000001      0.000005      0.000000
      8 O     c       0.000034      0.000017      0.000008      0.000000
      9 O     c      -0.000010      0.000007     -0.000001      0.000000
     10 O     c       0.000240     -0.000003      0.000008      0.000000
     11 O     c       0.000033      0.000010     -0.000004      0.000000
     12 O     c       0.000019      0.000024      0.000000      0.000000
--------------------------------------------------------------------------------
  Maximum abs         0.000293      0.000037      0.000028      0.000000
--------------------------------------------------------------------------------


  Time to end of optimisation =       2.0832 seconds


  Peak dynamic memory used =       1.84 MB 


  Timing analysis for GULP :

--------------------------------------------------------------------------------
  Task / Subroutine                                          Time (Seconds)
--------------------------------------------------------------------------------
  Calculation of reciprocal space energy and derivatives          0.0803
  Calculation of real space energy and derivatives                1.9814
  Calculation and manipulation of Hessian matrix                  0.0006
  Calculation of matrix inversion                                 0.0010
  Global summation overhead                                       0.0004
--------------------------------------------------------------------------------
  Total CPU time                                                  2.0833
--------------------------------------------------------------------------------


  Job Finished at 11:17.11 29th May        2024                               

