********************************************************************************
*                       GENERAL UTILITY LATTICE PROGRAM                        *
*                                 Julian Gale                                  *
*                       Curtin Institute for Computation                       *
*                    School of Molecular and Life Sciences                     *
*                    Curtin University, Western Australia                      *
********************************************************************************
* Version = 6.0.0 * Last modified =  12th July 2021                            *
********************************************************************************
*  optimise     - perform optimisation run                                     *
*  conp         - constant pressure calculation                                *
*  conjugate    - use conjugate gradients minimiser                            *
********************************************************************************

  Job Started  at 11:17.31 29th May        2024                               

  Number of CPUs =     1


  Total number of configurations input =      1

********************************************************************************
*  Input for Configuration =   1                                               *
********************************************************************************

  Formula = Ti4O8                                                       

  Number of irreducible atoms/shells =      12


  Total number atoms/shells =      12

  Dimensionality = 3               :  Bulk   



  Cartesian lattice vectors (Angstroms) :

        5.720514   -0.734368   -0.038568
       -1.631090    6.707673   -1.358328
        0.598990   -0.130104    3.612559

  Cell parameters (Angstroms/Degrees):

  a =       5.7676    alpha = 105.1946
  b =       7.0355    beta  =  80.7893
  c =       3.6642    gamma = 110.4902

  Initial cell volume =         134.024851 Angs**3

  Temperature of configuration =   0.00     K 

  Pressure of configuration =         0.000 GPa 

  Fractional coordinates of asymmetric unit :

--------------------------------------------------------------------------------
   No.  Atomic       x           y          z         Charge      Occupancy
        Label      (Frac)      (Frac)     (Frac)        (e)         (Frac)  
--------------------------------------------------------------------------------
      1 Ti    c    0.487881    0.529385    0.862241     2.19600    1.000000    
      2 Ti    c    0.270310 *  0.094276 *  0.171343 *   2.19600    1.000000    
      3 Ti    c    0.837417 *  0.245230 *  0.670750 *   2.19600    1.000000    
      4 Ti    c    0.664476 *  0.245230 *  0.374814 *   2.19600    1.000000    
      5 O     c    0.322515 *  0.616851 *  0.595591 *  -1.09800    1.000000    
      6 O     c    0.551762 *  0.331267 *  0.498923 *  -1.09800    1.000000    
      7 O     c    0.586223 *  0.181762 *  0.006021 *  -1.09800    1.000000    
      8 O     c    0.041883 *  0.181736 *  0.424153 *  -1.09800    1.000000    
      9 O     c    0.225854 *  0.331278 *  0.080759 *  -1.09800    1.000000    
     10 O     c    0.397283 *  0.804617 *  0.235250 *  -1.09800    1.000000    
     11 O     c    0.837416 *  0.714108 *  0.201875 *  -1.09800    1.000000    
     12 O     c    0.837416 *  0.887048 *  0.670753 *  -1.09800    1.000000    
--------------------------------------------------------------------------------



********************************************************************************
*  General input information                                                   *
********************************************************************************

  Species output for all configurations : 

--------------------------------------------------------------------------------
  Species    Type    Atomic    Atomic    Charge       Radii (Angs)     Library
                     Number     Mass       (e)     Cova   Ionic  VDW   Symbol
--------------------------------------------------------------------------------
    Ti       Core       22      47.88   2.196000   1.470  0.000  2.190          
    O        Core        8      16.00  -1.098000   0.730  0.000  1.360          
--------------------------------------------------------------------------------


  Lattice summation method               =    Ewald          (3-D)
                                         =    Parry          (2-D)
                                         =    Saunders et al (1-D)
  Accuracy factor for lattice sums       =   12.000


  Analytic derivatives to be used

  Time limit = Infinity

  Maximum range for interatomic potentials =    100000.000000 Angstroms

  General interatomic potentials :

--------------------------------------------------------------------------------
Atom  Types   Potential      Parameter       Value         Units   Cutoffs(Ang)
  1     2                                                            Min /  Max 
--------------------------------------------------------------------------------
Ti   c Ti   c Buckingham    Buckingham A     31120.100    eV        0.000 15.000
                            Buckingham rho  0.15400000    Ang       
                            Buckingham C     5.2500000    eV*Ang^6  
--------------------------------------------------------------------------------
O    c O    c Buckingham    Buckingham A     11782.700    eV        0.000 15.000
                            Buckingham rho  0.23400000    Ang       
                            Buckingham C     30.220000    eV*Ang^6  
--------------------------------------------------------------------------------
O    c Ti   c Buckingham    Buckingham A     16957.500    eV        0.000 15.000
                            Buckingham rho  0.19400000    Ang       
                            Buckingham C     12.590000    eV*Ang^6  
--------------------------------------------------------------------------------
Ti   c Ti   c Lennard       Lennard-Jones A  1.0000000    eV*Ang^m  0.000 15.000
                            Lennard-Jones B  0.0000000    eV*Ang^n  
                            Exponent m        12          None
                            Exponent n         6          None
--------------------------------------------------------------------------------
O    c O    c Lennard       Lennard-Jones A  1.0000000    eV*Ang^m  0.000 15.000
                            Lennard-Jones B  0.0000000    eV*Ang^n  
                            Exponent m        12          None
                            Exponent n         6          None
--------------------------------------------------------------------------------
O    c Ti   c Lennard       Lennard-Jones A  1.0000000    eV*Ang^m  0.000 15.000
                            Lennard-Jones B  0.0000000    eV*Ang^n  
                            Exponent m        12          None
                            Exponent n         6          None
--------------------------------------------------------------------------------

********************************************************************************
*  Output for configuration   1                                                *
********************************************************************************


  Components of energy : 

--------------------------------------------------------------------------------
  Interatomic potentials     =         120.90948612 eV    
  Monopole - monopole (real) =         -53.20343840 eV    
  Monopole - monopole (recip)=         -88.91596310 eV    
  Monopole - monopole (total)=        -142.11940151 eV    
--------------------------------------------------------------------------------
  Total lattice energy       =         -21.20991538 eV    
--------------------------------------------------------------------------------
  Total lattice energy       =           -2046.4326 kJ/(mole unit cells)
--------------------------------------------------------------------------------


  Number of variables =       39

  Maximum number of calculations  =          1000
  Maximum Hessian update interval =            10
  Maximum step size               =   1.000000000
  Maximum parameter tolerance     =   0.000010000
  Maximum function  tolerance     =   0.000010000
  Maximum gradient  tolerance     =   0.001000000
  Maximum gradient  component     =   0.010000000

  Symmetry not applied to optimisation

  Cell parameters to be optimised using strains

  Conjugate gradient optimiser to be used

  Lower half triangular hessian to be used

  Minimiser to switch to BFGS with exact hessian
  When gradient norm is less than     0.500000

  Start of bulk optimisation :

  Cycle:      0 Energy:       -21.209915  Gnorm:     92.306423  CPU:    0.029
  Cycle:      1 Energy:       -86.405050  Gnorm:     10.291442  CPU:    0.093
  Cycle:      2 Energy:      -114.925473  Gnorm:     13.613850  CPU:    0.147
  Cycle:      3 Energy:      -130.884376  Gnorm:      3.571333  CPU:    0.182
  Cycle:      4 Energy:      -137.118058  Gnorm:      3.822074  CPU:    0.224
  Cycle:      5 Energy:      -139.275541  Gnorm:      1.647995  CPU:    0.259
  Cycle:      6 Energy:      -141.941446  Gnorm:      1.429572  CPU:    0.301
  Cycle:      7 Energy:      -143.970443  Gnorm:      2.906244  CPU:    0.336
  Cycle:      8 Energy:      -144.583711  Gnorm:      2.874101  CPU:    0.371
  Cycle:      9 Energy:      -146.240423  Gnorm:      1.397444  CPU:    0.406
  Cycle:     10 Energy:      -147.007567  Gnorm:      0.909767  CPU:    0.450
  Cycle:     11 Energy:      -147.580701  Gnorm:      0.727164  CPU:    0.493
  Cycle:     12 Energy:      -148.357816  Gnorm:      1.131178  CPU:    0.538
  Cycle:     13 Energy:      -149.102829  Gnorm:      1.309616  CPU:    0.575
  Cycle:     14 Energy:      -150.018182  Gnorm:      0.888434  CPU:    0.613
  Cycle:     15 Energy:      -150.606868  Gnorm:      0.510144  CPU:    0.659
  Cycle:     16 Energy:      -150.946101  Gnorm:      0.565919  CPU:    0.705
  Cycle:     17 Energy:      -151.334476  Gnorm:      0.619868  CPU:    0.750
  Cycle:     18 Energy:      -151.689676  Gnorm:      0.570568  CPU:    0.787
  Cycle:     19 Energy:      -151.935629  Gnorm:      0.434289  CPU:    0.834
  ** Hessian calculated **
  Cycle:     20 Energy:      -152.497689  Gnorm:      0.423201  CPU:    0.926
  Cycle:     21 Energy:      -152.676423  Gnorm:      0.215889  CPU:    0.964
  ** Hessian calculated **
  Cycle:     22 Energy:      -152.974898  Gnorm:      0.251311  CPU:    1.050
  Cycle:     23 Energy:      -153.181397  Gnorm:      0.321342  CPU:    1.107
  Cycle:     24 Energy:      -153.235005  Gnorm:      0.322685  CPU:    1.156
  Cycle:     25 Energy:      -153.414442  Gnorm:      0.330226  CPU:    1.206
  Cycle:     26 Energy:      -153.560488  Gnorm:      0.365536  CPU:    1.256
  Cycle:     27 Energy:      -153.663948  Gnorm:      0.369458  CPU:    1.297
  ** Hessian calculated **
  Cycle:     28 Energy:      -153.879373  Gnorm:      0.338433  CPU:    1.379
  Cycle:     29 Energy:      -154.176541  Gnorm:      0.447414  CPU:    1.431
  Cycle:     30 Energy:      -154.495587  Gnorm:      0.506714  CPU:    1.483
  Cycle:     31 Energy:      -154.754825  Gnorm:      0.405890  CPU:    1.526
  Cycle:     32 Energy:      -154.905599  Gnorm:      0.289143  CPU:    1.570
  Cycle:     33 Energy:      -155.001807  Gnorm:      0.223613  CPU:    1.614
  Cycle:     34 Energy:      -155.060918  Gnorm:      0.251033  CPU:    1.668
  Cycle:     35 Energy:      -155.130948  Gnorm:      0.214326  CPU:    1.723
  Cycle:     36 Energy:      -155.186606  Gnorm:      0.156204  CPU:    1.767
  Cycle:     37 Energy:      -155.205334  Gnorm:      0.098063  CPU:    1.811
  ** Hessian calculated **
  Cycle:     38 Energy:      -155.271749  Gnorm:      0.109544  CPU:    1.915
  Cycle:     39 Energy:      -155.289315  Gnorm:      0.043995  CPU:    1.970
  ** Hessian calculated **
  Cycle:     40 Energy:      -155.291236  Gnorm:      0.044877  CPU:    2.054
  Cycle:     41 Energy:      -155.294959  Gnorm:      0.073001  CPU:    2.109
  Cycle:     42 Energy:      -155.303200  Gnorm:      0.098778  CPU:    2.164
  Cycle:     43 Energy:      -155.340314  Gnorm:      0.148247  CPU:    2.240
  Cycle:     44 Energy:      -155.376294  Gnorm:      0.215245  CPU:    2.295
  Cycle:     45 Energy:      -155.426858  Gnorm:      0.327919  CPU:    2.349
  Cycle:     46 Energy:      -155.608739  Gnorm:      0.478762  CPU:    2.403
  Cycle:     47 Energy:      -156.057434  Gnorm:      0.749530  CPU:    2.456
  Cycle:     48 Energy:      -156.560296  Gnorm:      0.768549  CPU:    2.509
  Cycle:     49 Energy:      -156.813477  Gnorm:      0.515159  CPU:    2.563
  ** Hessian calculated **
  Cycle:     50 Energy:      -157.661096  Gnorm:      0.437721  CPU:    2.657
  Cycle:     51 Energy:      -157.941602  Gnorm:      0.192154  CPU:    2.711
  Cycle:     52 Energy:      -157.976696  Gnorm:      0.069592  CPU:    2.753
  Cycle:     53 Energy:      -157.981419  Gnorm:      0.028046  CPU:    2.797
  Cycle:     54 Energy:      -157.983584  Gnorm:      0.023183  CPU:    2.840
  Cycle:     55 Energy:      -157.984094  Gnorm:      0.011269  CPU:    2.883
  Cycle:     56 Energy:      -157.984238  Gnorm:      0.006439  CPU:    2.927
  Cycle:     57 Energy:      -157.984303  Gnorm:      0.003846  CPU:    2.970
  Cycle:     58 Energy:      -157.984315  Gnorm:      0.001792  CPU:    3.013
  Cycle:     59 Energy:      -157.984317  Gnorm:      0.000518  CPU:    3.057
  ** Hessian calculated **


  **** Optimisation achieved ****


  Final energy =    -157.98431806 eV      
  Final Gnorm  =       0.00000048

  Components of energy : 

--------------------------------------------------------------------------------
  Interatomic potentials     =          12.75855521 eV    
  Monopole - monopole (real) =         -71.50978602 eV    
  Monopole - monopole (recip)=         -99.23308725 eV    
  Monopole - monopole (total)=        -170.74287327 eV    
--------------------------------------------------------------------------------
  Total lattice energy       =        -157.98431806 eV    
--------------------------------------------------------------------------------
  Total lattice energy       =          -15243.0717 kJ/(mole unit cells)
--------------------------------------------------------------------------------

  Final fractional coordinates of atoms :

--------------------------------------------------------------------------------
   No.  Atomic        x           y          z          Radius
        Label       (Frac)      (Frac)     (Frac)       (Angs) 
--------------------------------------------------------------------------------
     1  Ti    c     0.487881    0.529385    0.862241    0.000000
     2  Ti    c     0.487881    0.779385    0.612241    0.000000
     3  Ti    c     0.987881    0.279385    0.612241    0.000000
     4  Ti    c     0.987881    0.029385    0.862241    0.000000
     5  O     c     0.279829    0.529385    0.654189    0.000000
     6  O     c     0.779829    0.279385    0.404189    0.000000
     7  O     c     0.779829    0.029385    0.654189    0.000000
     8  O     c     0.195932    0.029385    0.070293    0.000000
     9  O     c     0.195932    0.279385    0.820293    0.000000
    10  O     c     0.695932    0.779385    0.820293    0.000000
    11  O     c     0.695932    0.529385    0.070293    0.000000
    12  O     c     0.279829    0.779385    0.404189    0.000000
--------------------------------------------------------------------------------

  Final Cartesian lattice vectors (Angstroms) :

        5.280610   -0.439431    1.384395
       -1.466507    6.504329   -3.737965
        1.544162   -1.344050    5.079723


  Final cell parameters and derivatives :

--------------------------------------------------------------------------------
       a            5.476723 Angstrom     dE/de1(xx)     0.000004 eV/strain
       b            7.643908 Angstrom     dE/de2(yy)     0.000002 eV/strain
       c            5.476723 Angstrom     dE/de3(zz)     0.000004 eV/strain
       alpha      135.764794 Degrees      dE/de4(yz)     0.000001 eV/strain
       beta        58.264470 Degrees      dE/de5(xz)     0.000000 eV/strain
       gamma      112.139874 Degrees      dE/de6(xy)    -0.000001 eV/strain
--------------------------------------------------------------------------------

  Primitive cell volume =           136.029651 Angs**3

  Density of cell =      3.900502 g/cm**3

  Non-primitive cell volume =           136.029651 Angs**3


  Final internal derivatives :

--------------------------------------------------------------------------------
   No.  Atomic          a             b             c           Radius
        Label          (eV)          (eV)          (eV)        (eV/Angs)
--------------------------------------------------------------------------------
      1 Ti    c       0.000000      0.000000      0.000000      0.000000
      2 Ti    c       0.000003     -0.000000      0.000002      0.000000
      3 Ti    c       0.000004     -0.000003      0.000003      0.000000
      4 Ti    c      -0.000003      0.000005     -0.000004      0.000000
      5 O     c      -0.000001     -0.000001      0.000000      0.000000
      6 O     c      -0.000006      0.000006     -0.000004      0.000000
      7 O     c      -0.000001     -0.000000     -0.000001      0.000000
      8 O     c       0.000005     -0.000006      0.000004      0.000000
      9 O     c       0.000000     -0.000001      0.000001      0.000000
     10 O     c       0.000002     -0.000002      0.000003      0.000000
     11 O     c       0.000001     -0.000002      0.000003      0.000000
     12 O     c       0.000001      0.000000     -0.000001      0.000000
--------------------------------------------------------------------------------
  Maximum abs         0.000006      0.000006      0.000004      0.000000
--------------------------------------------------------------------------------


  Time to end of optimisation =       3.1408 seconds


  Peak dynamic memory used =       1.84 MB 


  Timing analysis for GULP :

--------------------------------------------------------------------------------
  Task / Subroutine                                          Time (Seconds)
--------------------------------------------------------------------------------
  Calculation of reciprocal space energy and derivatives          0.0848
  Calculation of real space energy and derivatives                3.0319
  Calculation and manipulation of Hessian matrix                  0.0008
  Calculation of matrix inversion                                 0.0013
  Global summation overhead                                       0.0004
--------------------------------------------------------------------------------
  Total CPU time                                                  3.1408
--------------------------------------------------------------------------------


  Job Finished at 11:17.34 29th May        2024                               

