********************************************************************************
*                       GENERAL UTILITY LATTICE PROGRAM                        *
*                                 Julian Gale                                  *
*                       Curtin Institute for Computation                       *
*                    School of Molecular and Life Sciences                     *
*                    Curtin University, Western Australia                      *
********************************************************************************
* Version = 6.0.0 * Last modified =  12th July 2021                            *
********************************************************************************
*  optimise     - perform optimisation run                                     *
*  conp         - constant pressure calculation                                *
*  conjugate    - use conjugate gradients minimiser                            *
********************************************************************************

  Job Started  at 11:17.21 29th May        2024                               

  Number of CPUs =     1


  Total number of configurations input =      1

********************************************************************************
*  Input for Configuration =   1                                               *
********************************************************************************

  Formula = Ti4O8                                                       

  Number of irreducible atoms/shells =      12


  Total number atoms/shells =      12

  Dimensionality = 3               :  Bulk   



  Cartesian lattice vectors (Angstroms) :

        5.913836    0.016870    1.487270
       -0.041129    5.525343    0.013581
        0.133324   -0.734976    4.131892

  Cell parameters (Angstroms/Degrees):

  a =       6.0980    alpha =  99.9538
  b =       5.5255    beta  =  74.3171
  c =       4.1989    gamma =  90.2207

  Initial cell volume =         134.024851 Angs**3

  Temperature of configuration =   0.00     K 

  Pressure of configuration =         0.000 GPa 

  Fractional coordinates of asymmetric unit :

--------------------------------------------------------------------------------
   No.  Atomic       x           y          z         Charge      Occupancy
        Label      (Frac)      (Frac)     (Frac)        (e)         (Frac)  
--------------------------------------------------------------------------------
      1 Ti    c    0.884032    0.722866    0.053367     2.19600    1.000000    
      2 Ti    c    0.271201 *  0.722864 *  0.053368 *   2.19600    1.000000    
      3 Ti    c    0.080432 *  0.792241 *  0.011371 *   2.19600    1.000000    
      4 Ti    c    0.878525 *  0.223559 *  0.666744 *   2.19600    1.000000    
      5 O     c    0.271202 *  0.071356 *  0.053366 *  -1.09800    1.000000    
      6 O     c    0.497236 *  0.722864 *  0.401861 *  -1.09800    1.000000    
      7 O     c    0.657996 *  0.110033 *  0.279402 *  -1.09800    1.000000    
      8 O     c    0.271202 *  0.336070 *  0.053366 *  -1.09800    1.000000    
      9 O     c    0.355901 *  0.906563 *  0.795253 *  -1.09800    1.000000    
     10 O     c    0.189904 *  0.165500 *  0.711751 *  -1.09800    1.000000    
     11 O     c    0.021586 *  0.337867 *  0.079612 *  -1.09800    1.000000    
     12 O     c    0.780801 *  0.165505 *  0.137717 *  -1.09800    1.000000    
--------------------------------------------------------------------------------



********************************************************************************
*  General input information                                                   *
********************************************************************************

  Species output for all configurations : 

--------------------------------------------------------------------------------
  Species    Type    Atomic    Atomic    Charge       Radii (Angs)     Library
                     Number     Mass       (e)     Cova   Ionic  VDW   Symbol
--------------------------------------------------------------------------------
    Ti       Core       22      47.88   2.196000   1.470  0.000  2.190          
    O        Core        8      16.00  -1.098000   0.730  0.000  1.360          
--------------------------------------------------------------------------------


  Lattice summation method               =    Ewald          (3-D)
                                         =    Parry          (2-D)
                                         =    Saunders et al (1-D)
  Accuracy factor for lattice sums       =   12.000


  Analytic derivatives to be used

  Time limit = Infinity

  Maximum range for interatomic potentials =    100000.000000 Angstroms

  General interatomic potentials :

--------------------------------------------------------------------------------
Atom  Types   Potential      Parameter       Value         Units   Cutoffs(Ang)
  1     2                                                            Min /  Max 
--------------------------------------------------------------------------------
Ti   c Ti   c Buckingham    Buckingham A     31120.100    eV        0.000 15.000
                            Buckingham rho  0.15400000    Ang       
                            Buckingham C     5.2500000    eV*Ang^6  
--------------------------------------------------------------------------------
O    c O    c Buckingham    Buckingham A     11782.700    eV        0.000 15.000
                            Buckingham rho  0.23400000    Ang       
                            Buckingham C     30.220000    eV*Ang^6  
--------------------------------------------------------------------------------
O    c Ti   c Buckingham    Buckingham A     16957.500    eV        0.000 15.000
                            Buckingham rho  0.19400000    Ang       
                            Buckingham C     12.590000    eV*Ang^6  
--------------------------------------------------------------------------------
Ti   c Ti   c Lennard       Lennard-Jones A  1.0000000    eV*Ang^m  0.000 15.000
                            Lennard-Jones B  0.0000000    eV*Ang^n  
                            Exponent m        12          None
                            Exponent n         6          None
--------------------------------------------------------------------------------
O    c O    c Lennard       Lennard-Jones A  1.0000000    eV*Ang^m  0.000 15.000
                            Lennard-Jones B  0.0000000    eV*Ang^n  
                            Exponent m        12          None
                            Exponent n         6          None
--------------------------------------------------------------------------------
O    c Ti   c Lennard       Lennard-Jones A  1.0000000    eV*Ang^m  0.000 15.000
                            Lennard-Jones B  0.0000000    eV*Ang^n  
                            Exponent m        12          None
                            Exponent n         6          None
--------------------------------------------------------------------------------

********************************************************************************
*  Output for configuration   1                                                *
********************************************************************************


  Components of energy : 

--------------------------------------------------------------------------------
  Interatomic potentials     =         323.13750051 eV    
  Monopole - monopole (real) =          40.37749259 eV    
  Monopole - monopole (recip)=         -78.34858688 eV    
  Monopole - monopole (total)=         -37.97109429 eV    
--------------------------------------------------------------------------------
  Total lattice energy       =         285.16640623 eV    
--------------------------------------------------------------------------------
  Total lattice energy       =           27514.1990 kJ/(mole unit cells)
--------------------------------------------------------------------------------


  Number of variables =       39

  Maximum number of calculations  =          1000
  Maximum Hessian update interval =            10
  Maximum step size               =   1.000000000
  Maximum parameter tolerance     =   0.000010000
  Maximum function  tolerance     =   0.000010000
  Maximum gradient  tolerance     =   0.001000000
  Maximum gradient  component     =   0.010000000

  Symmetry not applied to optimisation

  Cell parameters to be optimised using strains

  Conjugate gradient optimiser to be used

  Lower half triangular hessian to be used

  Minimiser to switch to BFGS with exact hessian
  When gradient norm is less than     0.500000

  Start of bulk optimisation :

  Cycle:      0 Energy:       285.166406  Gnorm:    141.399100  CPU:    0.025
  Cycle:      1 Energy:        74.301668  Gnorm:     40.786216  CPU:    0.063
  Cycle:      2 Energy:       -28.580582  Gnorm:     26.685581  CPU:    0.114
  Cycle:      3 Energy:       -81.060970  Gnorm:      8.101648  CPU:    0.151
  Cycle:      4 Energy:      -101.290618  Gnorm:      5.594457  CPU:    0.194
  Cycle:      5 Energy:      -123.115518  Gnorm:      3.577399  CPU:    0.241
  Cycle:      6 Energy:      -127.789325  Gnorm:      2.495254  CPU:    0.262
  Cycle:      7 Energy:      -134.313643  Gnorm:      1.908344  CPU:    0.291
  Cycle:      8 Energy:      -136.417649  Gnorm:      1.250370  CPU:    0.312
  Cycle:      9 Energy:      -138.102806  Gnorm:      1.605212  CPU:    0.338
  Cycle:     10 Energy:      -138.909014  Gnorm:      1.085439  CPU:    0.360
  Cycle:     11 Energy:      -140.993186  Gnorm:      1.609119  CPU:    0.387
  Cycle:     12 Energy:      -142.027260  Gnorm:      2.127871  CPU:    0.414
  Cycle:     13 Energy:      -144.074007  Gnorm:      1.257884  CPU:    0.435
  Cycle:     14 Energy:      -145.553442  Gnorm:      0.890566  CPU:    0.464
  Cycle:     15 Energy:      -146.730180  Gnorm:      1.473884  CPU:    0.489
  Cycle:     16 Energy:      -147.811241  Gnorm:      1.281583  CPU:    0.510
  Cycle:     17 Energy:      -149.284760  Gnorm:      0.851697  CPU:    0.539
  Cycle:     18 Energy:      -149.916766  Gnorm:      0.627626  CPU:    0.565
  Cycle:     19 Energy:      -150.354619  Gnorm:      0.559704  CPU:    0.592
  Cycle:     20 Energy:      -150.557301  Gnorm:      0.411452  CPU:    0.614
  ** Hessian calculated **
  Cycle:     21 Energy:      -151.308128  Gnorm:      0.419861  CPU:    0.704
  ** Hessian calculated **
  Cycle:     22 Energy:      -151.640909  Gnorm:      0.380734  CPU:    0.787
  ** Hessian calculated **
  Cycle:     23 Energy:      -151.951457  Gnorm:      0.498930  CPU:    0.856
  Cycle:     24 Energy:      -152.483438  Gnorm:      0.571035  CPU:    0.900
  Cycle:     25 Energy:      -152.729911  Gnorm:      0.507079  CPU:    0.936
  Cycle:     26 Energy:      -153.145232  Gnorm:      0.390880  CPU:    0.981
  Cycle:     27 Energy:      -153.378009  Gnorm:      0.369649  CPU:    1.020
  Cycle:     28 Energy:      -153.529752  Gnorm:      0.337877  CPU:    1.055
  Cycle:     29 Energy:      -153.717039  Gnorm:      0.292636  CPU:    1.100
  Cycle:     30 Energy:      -153.810926  Gnorm:      0.226145  CPU:    1.139
  Cycle:     31 Energy:      -153.886486  Gnorm:      0.166720  CPU:    1.183
  Cycle:     32 Energy:      -153.941609  Gnorm:      0.133546  CPU:    1.219
  ** Hessian calculated **
  Cycle:     33 Energy:      -154.134974  Gnorm:      0.115692  CPU:    1.320
  Cycle:     34 Energy:      -154.168327  Gnorm:      0.129115  CPU:    1.349
  Cycle:     35 Energy:      -154.190517  Gnorm:      0.233287  CPU:    1.393
  Cycle:     36 Energy:      -154.191450  Gnorm:      0.259513  CPU:    1.422
  Cycle:     37 Energy:      -154.222780  Gnorm:      0.342102  CPU:    1.467
  Cycle:     38 Energy:      -154.227095  Gnorm:      0.355355  CPU:    1.498
  ** Hessian calculated **
  Cycle:     39 Energy:      -154.357911  Gnorm:      0.195663  CPU:    1.561
  Cycle:     40 Energy:      -154.423200  Gnorm:      0.166999  CPU:    1.593
  Cycle:     41 Energy:      -154.491919  Gnorm:      0.244397  CPU:    1.622
  Cycle:     42 Energy:      -154.592387  Gnorm:      0.200376  CPU:    1.652
  Cycle:     43 Energy:      -154.664837  Gnorm:      0.140555  CPU:    1.676
  Cycle:     44 Energy:      -154.692212  Gnorm:      0.111898  CPU:    1.701
  Cycle:     45 Energy:      -154.719070  Gnorm:      0.111361  CPU:    1.734
  Cycle:     46 Energy:      -154.743386  Gnorm:      0.131870  CPU:    1.758
  Cycle:     47 Energy:      -154.783737  Gnorm:      0.129547  CPU:    1.788
  Cycle:     48 Energy:      -154.825630  Gnorm:      0.158563  CPU:    1.812
  ** Hessian calculated **
  Cycle:     49 Energy:      -154.849423  Gnorm:      0.095146  CPU:    1.878
  Cycle:     50 Energy:      -154.868654  Gnorm:      0.104808  CPU:    1.909
  Cycle:     51 Energy:      -154.892470  Gnorm:      0.110202  CPU:    1.939
  Cycle:     52 Energy:      -154.914243  Gnorm:      0.101649  CPU:    1.966
  Cycle:     53 Energy:      -154.942264  Gnorm:      0.104463  CPU:    1.999
  Cycle:     54 Energy:      -154.967254  Gnorm:      0.105824  CPU:    2.035
  Cycle:     55 Energy:      -154.995010  Gnorm:      0.108049  CPU:    2.074
  Cycle:     56 Energy:      -155.026815  Gnorm:      0.136147  CPU:    2.103
  Cycle:     57 Energy:      -155.076820  Gnorm:      0.170888  CPU:    2.139
  Cycle:     58 Energy:      -155.149643  Gnorm:      0.279098  CPU:    2.167
  ** Hessian calculated **
  Cycle:     59 Energy:      -155.223457  Gnorm:      0.183121  CPU:    2.246
  Cycle:     60 Energy:      -155.288030  Gnorm:      0.208244  CPU:    2.294
  Cycle:     61 Energy:      -155.358620  Gnorm:      0.253442  CPU:    2.339
  Cycle:     62 Energy:      -155.482213  Gnorm:      0.302300  CPU:    2.385
  Cycle:     63 Energy:      -155.608882  Gnorm:      0.301590  CPU:    2.433
  Cycle:     64 Energy:      -155.777108  Gnorm:      0.262425  CPU:    2.477
  Cycle:     65 Energy:      -155.879350  Gnorm:      0.219541  CPU:    2.514
  Cycle:     66 Energy:      -155.941755  Gnorm:      0.171966  CPU:    2.562
  Cycle:     67 Energy:      -155.983234  Gnorm:      0.135706  CPU:    2.599
  Cycle:     68 Energy:      -156.038893  Gnorm:      0.153091  CPU:    2.644
  ** Hessian calculated **
  Cycle:     69 Energy:      -156.119441  Gnorm:      0.159056  CPU:    2.765
  Cycle:     70 Energy:      -156.229725  Gnorm:      0.098673  CPU:    2.804
  Cycle:     71 Energy:      -156.261180  Gnorm:      0.121181  CPU:    2.840
  Cycle:     72 Energy:      -156.294231  Gnorm:      0.136607  CPU:    2.877
  Cycle:     73 Energy:      -156.329493  Gnorm:      0.171554  CPU:    2.924
  Cycle:     74 Energy:      -156.358871  Gnorm:      0.085523  CPU:    2.960
  Cycle:     75 Energy:      -156.369941  Gnorm:      0.062771  CPU:    3.005
  Cycle:     76 Energy:      -156.376642  Gnorm:      0.039786  CPU:    3.045
  Cycle:     77 Energy:      -156.381161  Gnorm:      0.030857  CPU:    3.089
  Cycle:     78 Energy:      -156.382299  Gnorm:      0.016586  CPU:    3.126
  ** Hessian calculated **
  Cycle:     79 Energy:      -156.382973  Gnorm:      0.000660  CPU:    3.214
  Cycle:     80 Energy:      -156.382974  Gnorm:      0.000691  CPU:    3.258
  Cycle:     81 Energy:      -156.382974  Gnorm:      0.000587  CPU:    3.298
  Cycle:     82 Energy:      -156.382974  Gnorm:      0.000535  CPU:    3.334


  **** Optimisation achieved ****


  Final energy =    -156.38297405 eV      
  Final Gnorm  =       0.00050881

  Components of energy : 

--------------------------------------------------------------------------------
  Interatomic potentials     =          12.60335988 eV    
  Monopole - monopole (real) =         -68.82491548 eV    
  Monopole - monopole (recip)=        -100.16141844 eV    
  Monopole - monopole (total)=        -168.98633392 eV    
--------------------------------------------------------------------------------
  Total lattice energy       =        -156.38297405 eV    
--------------------------------------------------------------------------------
  Total lattice energy       =          -15088.5665 kJ/(mole unit cells)
--------------------------------------------------------------------------------

  Final fractional coordinates of atoms :

--------------------------------------------------------------------------------
   No.  Atomic        x           y          z          Radius
        Label       (Frac)      (Frac)     (Frac)       (Angs) 
--------------------------------------------------------------------------------
     1  Ti    c     0.884032    0.722866    0.053367    0.000000
     2  Ti    c     0.330951    0.597912    0.131024    0.000000
     3  Ti    c     0.160619    0.049510    0.789900    0.000000
     4  Ti    c     0.646634    0.117443    0.674949    0.000000
     5  O     c     0.918372    0.846531    0.618641    0.000000
     6  O     c     0.528320    0.813822    0.359251    0.000000
     7  O     c     0.142090    0.955001    0.240040    0.000000
     8  O     c     0.398465    0.226795    0.891520    0.000000
     9  O     c     0.280431    0.676044    0.656868    0.000000
    10  O     c     0.708970    0.468801    0.814543    0.000000
    11  O     c     0.079371    0.429117    0.982236    0.000000
    12  O     c     0.742675    0.067494    0.162718    0.000000
--------------------------------------------------------------------------------

  Final Cartesian lattice vectors (Angstroms) :

        7.186010    0.292451    0.329509
        0.337624    5.264322   -0.374384
       -0.696668   -0.970300    3.529384


  Final cell parameters and derivatives :

--------------------------------------------------------------------------------
       a            7.199503 Angstrom     dE/de1(xx)     0.003267 eV/strain
       b            5.288406 Angstrom     dE/de2(yy)    -0.001178 eV/strain
       c            3.726041 Angstrom     dE/de3(zz)    -0.000397 eV/strain
       alpha      109.768361 Degrees      dE/de4(yz)    -0.000409 eV/strain
       beta        98.849970 Degrees      dE/de5(xz)     0.000435 eV/strain
       gamma       84.207931 Degrees      dE/de6(xy)     0.000556 eV/strain
--------------------------------------------------------------------------------

  Primitive cell volume =           131.732640 Angs**3

  Density of cell =      4.027733 g/cm**3

  Non-primitive cell volume =           131.732640 Angs**3


  Final internal derivatives :

--------------------------------------------------------------------------------
   No.  Atomic          a             b             c           Radius
        Label          (eV)          (eV)          (eV)        (eV/Angs)
--------------------------------------------------------------------------------
      1 Ti    c       0.000000      0.000000      0.000000      0.000000
      2 Ti    c       0.009564      0.002660     -0.000845      0.000000
      3 Ti    c       0.002431      0.000641     -0.001126      0.000000
      4 Ti    c       0.003060      0.006641      0.001900      0.000000
      5 O     c       0.002828     -0.000525     -0.000686      0.000000
      6 O     c      -0.007476     -0.004696     -0.000709      0.000000
      7 O     c      -0.002175      0.000575     -0.000423      0.000000
      8 O     c      -0.001111     -0.002025      0.000441      0.000000
      9 O     c      -0.001452      0.000409      0.000012      0.000000
     10 O     c      -0.004362     -0.006452      0.000648      0.000000
     11 O     c      -0.005623     -0.001395      0.000271      0.000000
     12 O     c       0.004470      0.001098     -0.000915      0.000000
--------------------------------------------------------------------------------
  Maximum abs         0.009564      0.006641      0.001900      0.000000
--------------------------------------------------------------------------------


  Time to end of optimisation =       3.3704 seconds


  Peak dynamic memory used =       1.84 MB 


  Timing analysis for GULP :

--------------------------------------------------------------------------------
  Task / Subroutine                                          Time (Seconds)
--------------------------------------------------------------------------------
  Calculation of reciprocal space energy and derivatives          0.1166
  Calculation of real space energy and derivatives                3.2251
  Calculation and manipulation of Hessian matrix                  0.0010
  Calculation of matrix inversion                                 0.0017
  Global summation overhead                                       0.0006
--------------------------------------------------------------------------------
  Total CPU time                                                  3.3704
--------------------------------------------------------------------------------


  Job Finished at 11:17.24 29th May        2024                               

