********************************************************************************
*                       GENERAL UTILITY LATTICE PROGRAM                        *
*                                 Julian Gale                                  *
*                       Curtin Institute for Computation                       *
*                    School of Molecular and Life Sciences                     *
*                    Curtin University, Western Australia                      *
********************************************************************************
* Version = 6.0.0 * Last modified =  12th July 2021                            *
********************************************************************************
*  optimise     - perform optimisation run                                     *
*  conp         - constant pressure calculation                                *
*  conjugate    - use conjugate gradients minimiser                            *
********************************************************************************

  Job Started  at 11:17.43 29th May        2024                               

  Number of CPUs =     1


  Total number of configurations input =      1

********************************************************************************
*  Input for Configuration =   1                                               *
********************************************************************************

  Formula = Ti4O8                                                       

  Number of irreducible atoms/shells =      12


  Total number atoms/shells =      12

  Dimensionality = 3               :  Bulk   



  Cartesian lattice vectors (Angstroms) :

        3.764646    0.962205   -3.596784
        0.408081    7.223465   -1.186561
       -0.235190   -0.886338    5.317879

  Cell parameters (Angstroms/Degrees):

  a =       5.2948    alpha = 108.8891
  b =       7.3316    beta  = 136.9079
  c =       5.3964    gamma =  70.8187

  Initial cell volume =         134.024851 Angs**3

  Temperature of configuration =   0.00     K 

  Pressure of configuration =         0.000 GPa 

  Fractional coordinates of asymmetric unit :

--------------------------------------------------------------------------------
   No.  Atomic       x           y          z         Charge      Occupancy
        Label      (Frac)      (Frac)     (Frac)        (e)         (Frac)  
--------------------------------------------------------------------------------
      1 Ti    c    0.359872    0.571099    0.485591     2.19600    1.000000    
      2 Ti    c    0.359870 *  0.068106 *  0.485595 *   2.19600    1.000000    
      3 Ti    c    0.527121 *  0.670147 *  0.498478 *   2.19600    1.000000    
      4 Ti    c    0.754436 *  0.392064 *  0.330027 *   2.19600    1.000000    
      5 O     c    0.150567 *  0.675734 *  0.694878 *  -1.09800    1.000000    
      6 O     c    0.150579 *  0.172747 *  0.694901 *  -1.09800    1.000000    
      7 O     c    0.402078 *  0.298502 *  0.443414 *  -1.09800    1.000000    
      8 O     c    0.402069 *  0.801493 *  0.443392 *  -1.09800    1.000000    
      9 O     c    0.802812 *  0.118247 *  0.833027 *  -1.09800    1.000000    
     10 O     c    0.802805 *  0.895052 *  0.330017 *  -1.09800    1.000000    
     11 O     c    0.527120 *  0.343153 *  0.001469 *  -1.09800    1.000000    
     12 O     c    0.754441 *  0.621235 *  0.833008 *  -1.09800    1.000000    
--------------------------------------------------------------------------------



********************************************************************************
*  General input information                                                   *
********************************************************************************

  Species output for all configurations : 

--------------------------------------------------------------------------------
  Species    Type    Atomic    Atomic    Charge       Radii (Angs)     Library
                     Number     Mass       (e)     Cova   Ionic  VDW   Symbol
--------------------------------------------------------------------------------
    Ti       Core       22      47.88   2.196000   1.470  0.000  2.190          
    O        Core        8      16.00  -1.098000   0.730  0.000  1.360          
--------------------------------------------------------------------------------


  Lattice summation method               =    Ewald          (3-D)
                                         =    Parry          (2-D)
                                         =    Saunders et al (1-D)
  Accuracy factor for lattice sums       =   12.000


  Analytic derivatives to be used

  Time limit = Infinity

  Maximum range for interatomic potentials =    100000.000000 Angstroms

  General interatomic potentials :

--------------------------------------------------------------------------------
Atom  Types   Potential      Parameter       Value         Units   Cutoffs(Ang)
  1     2                                                            Min /  Max 
--------------------------------------------------------------------------------
Ti   c Ti   c Buckingham    Buckingham A     31120.100    eV        0.000 15.000
                            Buckingham rho  0.15400000    Ang       
                            Buckingham C     5.2500000    eV*Ang^6  
--------------------------------------------------------------------------------
O    c O    c Buckingham    Buckingham A     11782.700    eV        0.000 15.000
                            Buckingham rho  0.23400000    Ang       
                            Buckingham C     30.220000    eV*Ang^6  
--------------------------------------------------------------------------------
O    c Ti   c Buckingham    Buckingham A     16957.500    eV        0.000 15.000
                            Buckingham rho  0.19400000    Ang       
                            Buckingham C     12.590000    eV*Ang^6  
--------------------------------------------------------------------------------
Ti   c Ti   c Lennard       Lennard-Jones A  1.0000000    eV*Ang^m  0.000 15.000
                            Lennard-Jones B  0.0000000    eV*Ang^n  
                            Exponent m        12          None
                            Exponent n         6          None
--------------------------------------------------------------------------------
O    c O    c Lennard       Lennard-Jones A  1.0000000    eV*Ang^m  0.000 15.000
                            Lennard-Jones B  0.0000000    eV*Ang^n  
                            Exponent m        12          None
                            Exponent n         6          None
--------------------------------------------------------------------------------
O    c Ti   c Lennard       Lennard-Jones A  1.0000000    eV*Ang^m  0.000 15.000
                            Lennard-Jones B  0.0000000    eV*Ang^n  
                            Exponent m        12          None
                            Exponent n         6          None
--------------------------------------------------------------------------------

********************************************************************************
*  Output for configuration   1                                                *
********************************************************************************


  Components of energy : 

--------------------------------------------------------------------------------
  Interatomic potentials     =         170.89814594 eV    
  Monopole - monopole (real) =         -53.30477139 eV    
  Monopole - monopole (recip)=         -91.96939884 eV    
  Monopole - monopole (total)=        -145.27417023 eV    
--------------------------------------------------------------------------------
  Total lattice energy       =          25.62397571 eV    
--------------------------------------------------------------------------------
  Total lattice energy       =            2472.3220 kJ/(mole unit cells)
--------------------------------------------------------------------------------


  Number of variables =       39

  Maximum number of calculations  =          1000
  Maximum Hessian update interval =            10
  Maximum step size               =   1.000000000
  Maximum parameter tolerance     =   0.000010000
  Maximum function  tolerance     =   0.000010000
  Maximum gradient  tolerance     =   0.001000000
  Maximum gradient  component     =   0.010000000

  Symmetry not applied to optimisation

  Cell parameters to be optimised using strains

  Conjugate gradient optimiser to be used

  Lower half triangular hessian to be used

  Minimiser to switch to BFGS with exact hessian
  When gradient norm is less than     0.500000

  Start of bulk optimisation :

  Cycle:      0 Energy:        25.623976  Gnorm:    106.839856  CPU:    0.032
  Cycle:      1 Energy:       -45.090425  Gnorm:     38.826484  CPU:    0.117
  Cycle:      2 Energy:      -121.284262  Gnorm:      8.854010  CPU:    0.210
  Cycle:      3 Energy:      -132.824403  Gnorm:      4.137327  CPU:    0.252
  Cycle:      4 Energy:      -138.562711  Gnorm:      2.565715  CPU:    0.302
  Cycle:      5 Energy:      -141.432526  Gnorm:      2.319593  CPU:    0.352
  Cycle:      6 Energy:      -143.834088  Gnorm:      2.462342  CPU:    0.403
  Cycle:      7 Energy:      -147.133950  Gnorm:      1.586512  CPU:    0.452
  Cycle:      8 Energy:      -148.733825  Gnorm:      1.223119  CPU:    0.501
  Cycle:      9 Energy:      -150.697859  Gnorm:      2.019973  CPU:    0.553
  Cycle:     10 Energy:      -152.040573  Gnorm:      1.077451  CPU:    0.604
  Cycle:     11 Energy:      -153.210646  Gnorm:      1.160395  CPU:    0.657
  Cycle:     12 Energy:      -154.039072  Gnorm:      1.319322  CPU:    0.700
  Cycle:     13 Energy:      -154.539572  Gnorm:      0.980844  CPU:    0.743
  Cycle:     14 Energy:      -154.998980  Gnorm:      0.815910  CPU:    0.798
  Cycle:     15 Energy:      -155.514095  Gnorm:      1.009328  CPU:    0.851
  Cycle:     16 Energy:      -155.900899  Gnorm:      0.743286  CPU:    0.895
  Cycle:     17 Energy:      -156.187941  Gnorm:      0.449603  CPU:    0.950
  ** Hessian calculated **
  Cycle:     18 Energy:      -156.522402  Gnorm:      0.601959  CPU:    1.035
  Cycle:     19 Energy:      -156.906289  Gnorm:      0.586791  CPU:    1.089
  Cycle:     20 Energy:      -157.143490  Gnorm:      0.500151  CPU:    1.132
  Cycle:     21 Energy:      -157.349606  Gnorm:      0.494345  CPU:    1.176
  Cycle:     22 Energy:      -157.528748  Gnorm:      0.338072  CPU:    1.230
  Cycle:     23 Energy:      -157.666855  Gnorm:      0.283421  CPU:    1.274
  Cycle:     24 Energy:      -157.757928  Gnorm:      0.249954  CPU:    1.318
  Cycle:     25 Energy:      -157.811343  Gnorm:      0.222914  CPU:    1.362
  Cycle:     26 Energy:      -157.861249  Gnorm:      0.189162  CPU:    1.416
  Cycle:     27 Energy:      -157.893371  Gnorm:      0.135056  CPU:    1.459
  ** Hessian calculated **
  Cycle:     28 Energy:      -157.978916  Gnorm:      0.065415  CPU:    1.565
  Cycle:     29 Energy:      -157.983544  Gnorm:      0.011830  CPU:    1.619
  Cycle:     30 Energy:      -157.984289  Gnorm:      0.005613  CPU:    1.674
  Cycle:     31 Energy:      -157.984316  Gnorm:      0.001100  CPU:    1.718


  **** Optimisation achieved ****


  Final energy =    -157.98431799 eV      
  Final Gnorm  =       0.00025811

  Components of energy : 

--------------------------------------------------------------------------------
  Interatomic potentials     =          12.75909313 eV    
  Monopole - monopole (real) =         -71.51006392 eV    
  Monopole - monopole (recip)=         -99.23334720 eV    
  Monopole - monopole (total)=        -170.74341113 eV    
--------------------------------------------------------------------------------
  Total lattice energy       =        -157.98431799 eV    
--------------------------------------------------------------------------------
  Total lattice energy       =          -15243.0717 kJ/(mole unit cells)
--------------------------------------------------------------------------------

  Final fractional coordinates of atoms :

--------------------------------------------------------------------------------
   No.  Atomic        x           y          z          Radius
        Label       (Frac)      (Frac)     (Frac)       (Angs) 
--------------------------------------------------------------------------------
     1  Ti    c     0.359872    0.571099    0.485591    0.000000
     2  Ti    c     0.359883    0.071100    0.485608    0.000000
     3  Ti    c     0.609881    0.696090    0.235590    0.000000
     4  Ti    c     0.609886    0.196092    0.235604    0.000000
     5  O     c     0.151829    0.675113    0.693643    0.000000
     6  O     c     0.151834    0.175119    0.693655    0.000000
     7  O     c     0.401833    0.300123    0.443655    0.000000
     8  O     c     0.401831    0.800123    0.443653    0.000000
     9  O     c     0.817934    0.092074    0.027555    0.000000
    10  O     c     0.567932    0.967067    0.277547    0.000000
    11  O     c     0.567927    0.467067    0.277538    0.000000
    12  O     c     0.817924    0.592075    0.027539    0.000000
--------------------------------------------------------------------------------

  Final Cartesian lattice vectors (Angstroms) :

        3.829353    1.028899   -3.777867
        0.452278    7.417105   -1.284986
       -0.414842   -0.960282    5.375911


  Final cell parameters and derivatives :

--------------------------------------------------------------------------------
       a            5.476756 Angstrom     dE/de1(xx)    -0.002074 eV/strain
       b            7.541167 Angstrom     dE/de2(yy)    -0.000748 eV/strain
       c            5.476738 Angstrom     dE/de3(zz)    -0.002167 eV/strain
       alpha      110.136371 Degrees      dE/de4(yz)    -0.000450 eV/strain
       beta       139.729648 Degrees      dE/de5(xz)    -0.000775 eV/strain
       gamma       69.864017 Degrees      dE/de6(xy)    -0.000294 eV/strain
--------------------------------------------------------------------------------

  Primitive cell volume =           136.028606 Angs**3

  Density of cell =      3.900532 g/cm**3

  Non-primitive cell volume =           136.028606 Angs**3


  Final internal derivatives :

--------------------------------------------------------------------------------
   No.  Atomic          a             b             c           Radius
        Label          (eV)          (eV)          (eV)        (eV/Angs)
--------------------------------------------------------------------------------
      1 Ti    c       0.000000      0.000000      0.000000      0.000000
      2 Ti    c      -0.002952      0.000638      0.003668      0.000000
      3 Ti    c       0.003909     -0.000608     -0.004261      0.000000
      4 Ti    c       0.001334     -0.000359     -0.001562      0.000000
      5 O     c       0.001575     -0.001272     -0.001057      0.000000
      6 O     c       0.001943      0.000832     -0.001663      0.000000
      7 O     c       0.000316      0.000493     -0.000021      0.000000
      8 O     c      -0.001209     -0.001175      0.001592      0.000000
      9 O     c      -0.001536      0.000100      0.001386      0.000000
     10 O     c       0.000404      0.000800     -0.000621      0.000000
     11 O     c       0.000481     -0.000214     -0.000895      0.000000
     12 O     c      -0.001949      0.000577      0.001138      0.000000
--------------------------------------------------------------------------------
  Maximum abs         0.003909      0.001272      0.004261      0.000000
--------------------------------------------------------------------------------


  Time to end of optimisation =       1.7629 seconds


  Peak dynamic memory used =       1.84 MB 


  Timing analysis for GULP :

--------------------------------------------------------------------------------
  Task / Subroutine                                          Time (Seconds)
--------------------------------------------------------------------------------
  Calculation of reciprocal space energy and derivatives          0.0420
  Calculation of real space energy and derivatives                1.7054
  Calculation and manipulation of Hessian matrix                  0.0002
  Calculation of matrix inversion                                 0.0004
  Global summation overhead                                       0.0002
--------------------------------------------------------------------------------
  Total CPU time                                                  1.7629
--------------------------------------------------------------------------------


  Job Finished at 11:17.45 29th May        2024                               

