********************************************************************************
*                       GENERAL UTILITY LATTICE PROGRAM                        *
*                                 Julian Gale                                  *
*                       Curtin Institute for Computation                       *
*                    School of Molecular and Life Sciences                     *
*                    Curtin University, Western Australia                      *
********************************************************************************
* Version = 6.0.0 * Last modified =  12th July 2021                            *
********************************************************************************
*  optimise     - perform optimisation run                                     *
*  conp         - constant pressure calculation                                *
*  conjugate    - use conjugate gradients minimiser                            *
********************************************************************************

  Job Started  at 11:16.53 29th May        2024                               

  Number of CPUs =     1


  Total number of configurations input =      1

********************************************************************************
*  Input for Configuration =   1                                               *
********************************************************************************

  Formula = Ti4O8                                                       

  Number of irreducible atoms/shells =      12


  Total number atoms/shells =      12

  Dimensionality = 3               :  Bulk   



  Cartesian lattice vectors (Angstroms) :

        5.945864    0.419908    0.636272
       -0.434635    5.726367   -0.261824
        0.419377    0.219788    3.953106

  Cell parameters (Angstroms/Degrees):

  a =       5.9945    alpha =  89.8966
  b =       5.7488    beta  =  77.6586
  c =       3.9814    gamma =  90.5758

  Initial cell volume =         134.024851 Angs**3

  Temperature of configuration =   0.00     K 

  Pressure of configuration =         0.000 GPa 

  Fractional coordinates of asymmetric unit :

--------------------------------------------------------------------------------
   No.  Atomic       x           y          z         Charge      Occupancy
        Label      (Frac)      (Frac)     (Frac)        (e)         (Frac)  
--------------------------------------------------------------------------------
      1 Ti    c    0.436272    0.301051    0.735547     2.19600    1.000000    
      2 Ti    c    0.436274 *  0.783092 *  0.253504 *   2.19600    1.000000    
      3 Ti    c    0.981317 *  0.554766 *  0.066950 *   2.19600    1.000000    
      4 Ti    c    0.981320 *  0.027992 *  0.898778 *   2.19600    1.000000    
      5 O     c    0.436272 *  0.490700 *  0.253507 *  -1.09800    1.000000    
      6 O     c    0.436273 *  0.079264 *  0.253503 *  -1.09800    1.000000    
      7 O     c    0.111743 *  0.301049 *  0.031721 *  -1.09800    1.000000    
      8 O     c    0.246624 *  0.783091 *  0.925195 *  -1.09800    1.000000    
      9 O     c    0.676265 *  0.192386 *  0.372004 *  -1.09800    1.000000    
     10 O     c    0.828793 *  0.344911 *  0.746250 *  -1.09800    1.000000    
     11 O     c    0.676267 *  0.719160 *  0.593727 *  -1.09800    1.000000    
     12 O     c    0.828791 *  0.871686 *  0.219477 *  -1.09800    1.000000    
--------------------------------------------------------------------------------



********************************************************************************
*  General input information                                                   *
********************************************************************************

  Species output for all configurations : 

--------------------------------------------------------------------------------
  Species    Type    Atomic    Atomic    Charge       Radii (Angs)     Library
                     Number     Mass       (e)     Cova   Ionic  VDW   Symbol
--------------------------------------------------------------------------------
    Ti       Core       22      47.88   2.196000   1.470  0.000  2.190          
    O        Core        8      16.00  -1.098000   0.730  0.000  1.360          
--------------------------------------------------------------------------------


  Lattice summation method               =    Ewald          (3-D)
                                         =    Parry          (2-D)
                                         =    Saunders et al (1-D)
  Accuracy factor for lattice sums       =   12.000


  Analytic derivatives to be used

  Time limit = Infinity

  Maximum range for interatomic potentials =    100000.000000 Angstroms

  General interatomic potentials :

--------------------------------------------------------------------------------
Atom  Types   Potential      Parameter       Value         Units   Cutoffs(Ang)
  1     2                                                            Min /  Max 
--------------------------------------------------------------------------------
Ti   c Ti   c Buckingham    Buckingham A     31120.100    eV        0.000 15.000
                            Buckingham rho  0.15400000    Ang       
                            Buckingham C     5.2500000    eV*Ang^6  
--------------------------------------------------------------------------------
O    c O    c Buckingham    Buckingham A     11782.700    eV        0.000 15.000
                            Buckingham rho  0.23400000    Ang       
                            Buckingham C     30.220000    eV*Ang^6  
--------------------------------------------------------------------------------
O    c Ti   c Buckingham    Buckingham A     16957.500    eV        0.000 15.000
                            Buckingham rho  0.19400000    Ang       
                            Buckingham C     12.590000    eV*Ang^6  
--------------------------------------------------------------------------------
Ti   c Ti   c Lennard       Lennard-Jones A  1.0000000    eV*Ang^m  0.000 15.000
                            Lennard-Jones B  0.0000000    eV*Ang^n  
                            Exponent m        12          None
                            Exponent n         6          None
--------------------------------------------------------------------------------
O    c O    c Lennard       Lennard-Jones A  1.0000000    eV*Ang^m  0.000 15.000
                            Lennard-Jones B  0.0000000    eV*Ang^n  
                            Exponent m        12          None
                            Exponent n         6          None
--------------------------------------------------------------------------------
O    c Ti   c Lennard       Lennard-Jones A  1.0000000    eV*Ang^m  0.000 15.000
                            Lennard-Jones B  0.0000000    eV*Ang^n  
                            Exponent m        12          None
                            Exponent n         6          None
--------------------------------------------------------------------------------

********************************************************************************
*  Output for configuration   1                                                *
********************************************************************************


  Components of energy : 

--------------------------------------------------------------------------------
  Interatomic potentials     =          27.11639719 eV    
  Monopole - monopole (real) =         -54.61293184 eV    
  Monopole - monopole (recip)=         -97.32819986 eV    
  Monopole - monopole (total)=        -151.94113170 eV    
--------------------------------------------------------------------------------
  Total lattice energy       =        -124.82473451 eV    
--------------------------------------------------------------------------------
  Total lattice energy       =          -12043.6788 kJ/(mole unit cells)
--------------------------------------------------------------------------------


  Number of variables =       39

  Maximum number of calculations  =          1000
  Maximum Hessian update interval =            10
  Maximum step size               =   1.000000000
  Maximum parameter tolerance     =   0.000010000
  Maximum function  tolerance     =   0.000010000
  Maximum gradient  tolerance     =   0.001000000
  Maximum gradient  component     =   0.010000000

  Symmetry not applied to optimisation

  Cell parameters to be optimised using strains

  Conjugate gradient optimiser to be used

  Lower half triangular hessian to be used

  Minimiser to switch to BFGS with exact hessian
  When gradient norm is less than     0.500000

  Start of bulk optimisation :

  Cycle:      0 Energy:      -124.824735  Gnorm:      8.123323  CPU:    0.022
  Cycle:      1 Energy:      -138.023943  Gnorm:      3.488378  CPU:    0.045
  Cycle:      2 Energy:      -142.706134  Gnorm:      1.482442  CPU:    0.072
  Cycle:      3 Energy:      -145.262710  Gnorm:      1.513059  CPU:    0.102
  Cycle:      4 Energy:      -147.154413  Gnorm:      1.517291  CPU:    0.124
  Cycle:      5 Energy:      -149.108617  Gnorm:      1.448604  CPU:    0.152
  Cycle:      6 Energy:      -150.514269  Gnorm:      0.908304  CPU:    0.175
  Cycle:      7 Energy:      -151.593656  Gnorm:      0.806100  CPU:    0.206
  Cycle:      8 Energy:      -152.308819  Gnorm:      0.977557  CPU:    0.230
  Cycle:      9 Energy:      -152.871811  Gnorm:      0.845822  CPU:    0.255
  Cycle:     10 Energy:      -153.364643  Gnorm:      0.541047  CPU:    0.284
  Cycle:     11 Energy:      -153.752421  Gnorm:      0.552604  CPU:    0.317
  Cycle:     12 Energy:      -154.316581  Gnorm:      0.646099  CPU:    0.346
  Cycle:     13 Energy:      -154.971393  Gnorm:      0.856496  CPU:    0.371
  Cycle:     14 Energy:      -155.672967  Gnorm:      1.028420  CPU:    0.396
  Cycle:     15 Energy:      -156.621194  Gnorm:      0.723232  CPU:    0.424
  Cycle:     16 Energy:      -157.291854  Gnorm:      0.741033  CPU:    0.455
  Cycle:     17 Energy:      -157.781529  Gnorm:      0.707679  CPU:    0.480
  Cycle:     18 Energy:      -158.206171  Gnorm:      0.480461  CPU:    0.511
  ** Hessian calculated **
  Cycle:     19 Energy:      -158.991443  Gnorm:      0.580250  CPU:    0.585
  Cycle:     20 Energy:      -159.159746  Gnorm:      0.182998  CPU:    0.615
  Cycle:     21 Energy:      -159.194565  Gnorm:      0.045433  CPU:    0.644
  Cycle:     22 Energy:      -159.199724  Gnorm:      0.028172  CPU:    0.669
  Cycle:     23 Energy:      -159.201049  Gnorm:      0.012538  CPU:    0.694
  Cycle:     24 Energy:      -159.201346  Gnorm:      0.004687  CPU:    0.719
  Cycle:     25 Energy:      -159.201416  Gnorm:      0.002338  CPU:    0.747
  Cycle:     26 Energy:      -159.201428  Gnorm:      0.000999  CPU:    0.772


  **** Optimisation achieved ****


  Final energy =    -159.20142947 eV      
  Final Gnorm  =       0.00030378

  Components of energy : 

--------------------------------------------------------------------------------
  Interatomic potentials     =          12.37864394 eV    
  Monopole - monopole (real) =         -68.43749194 eV    
  Monopole - monopole (recip)=        -103.14258147 eV    
  Monopole - monopole (total)=        -171.58007341 eV    
--------------------------------------------------------------------------------
  Total lattice energy       =        -159.20142947 eV    
--------------------------------------------------------------------------------
  Total lattice energy       =          -15360.5043 kJ/(mole unit cells)
--------------------------------------------------------------------------------

  Final fractional coordinates of atoms :

--------------------------------------------------------------------------------
   No.  Atomic        x           y          z          Radius
        Label       (Frac)      (Frac)     (Frac)       (Angs) 
--------------------------------------------------------------------------------
     1  Ti    c     0.436272    0.301051    0.735547    0.000000
     2  Ti    c     0.436283    0.801054    0.235515    0.000000
     3  Ti    c     0.936277    0.801063    0.235535    0.000000
     4  Ti    c     0.936274    0.301062    0.735531    0.000000
     5  O     c     0.436269    0.497770    0.235521    0.000000
     6  O     c     0.436274    0.104342    0.235551    0.000000
     7  O     c     0.132984    0.301060    0.038816    0.000000
     8  O     c     0.239567    0.801062    0.932242    0.000000
     9  O     c     0.739559    0.301060    0.432256    0.000000
    10  O     c     0.936273    0.604349    0.735539    0.000000
    11  O     c     0.632993    0.801058    0.538816    0.000000
    12  O     c     0.936276    0.997773    0.735525    0.000000
--------------------------------------------------------------------------------

  Final Cartesian lattice vectors (Angstroms) :

        6.940391    0.539474    0.983112
       -0.448352    6.330674   -0.308269
        0.882136    0.202182    2.869280


  Final cell parameters and derivatives :

--------------------------------------------------------------------------------
       a            7.030403 Angstrom     dE/de1(xx)     0.003469 eV/strain
       b            6.354014 Angstrom     dE/de2(yy)     0.000655 eV/strain
       c            3.008623 Angstrom     dE/de3(zz)    -0.000715 eV/strain
       alpha       90.000207 Degrees      dE/de4(yz)    -0.001560 eV/strain
       beta        64.661452 Degrees      dE/de5(xz)     0.001451 eV/strain
       gamma       89.999446 Degrees      dE/de6(xy)     0.000234 eV/strain
--------------------------------------------------------------------------------

  Primitive cell volume =           121.469154 Angs**3

  Density of cell =      4.368054 g/cm**3

  Non-primitive cell volume =           121.469154 Angs**3


  Final internal derivatives :

--------------------------------------------------------------------------------
   No.  Atomic          a             b             c           Radius
        Label          (eV)          (eV)          (eV)        (eV/Angs)
--------------------------------------------------------------------------------
      1 Ti    c       0.000000      0.000000      0.000000      0.000000
      2 Ti    c       0.002379     -0.000883     -0.001939      0.000000
      3 Ti    c      -0.003806      0.001502      0.000839      0.000000
      4 Ti    c       0.000365      0.000573     -0.000421      0.000000
      5 O     c      -0.004707      0.001700     -0.003051      0.000000
      6 O     c       0.000077      0.001199      0.001128      0.000000
      7 O     c      -0.004104      0.000696     -0.000248      0.000000
      8 O     c       0.002834      0.000767      0.000240      0.000000
      9 O     c       0.002018      0.000389      0.000390      0.000000
     10 O     c      -0.000008      0.002065      0.000396      0.000000
     11 O     c       0.001291     -0.000092      0.001515      0.000000
     12 O     c      -0.000287     -0.004156     -0.001118      0.000000
--------------------------------------------------------------------------------
  Maximum abs         0.004707      0.004156      0.003051      0.000000
--------------------------------------------------------------------------------


  Time to end of optimisation =       0.7973 seconds


  Peak dynamic memory used =       1.84 MB 


  Timing analysis for GULP :

--------------------------------------------------------------------------------
  Task / Subroutine                                          Time (Seconds)
--------------------------------------------------------------------------------
  Calculation of reciprocal space energy and derivatives          0.0314
  Calculation of real space energy and derivatives                0.7519
  Calculation and manipulation of Hessian matrix                  0.0001
  Calculation of matrix inversion                                 0.0002
  Global summation overhead                                       0.0002
--------------------------------------------------------------------------------
  Total CPU time                                                  0.7973
--------------------------------------------------------------------------------


  Job Finished at 11:16.54 29th May        2024                               

