********************************************************************************
*                       GENERAL UTILITY LATTICE PROGRAM                        *
*                                 Julian Gale                                  *
*                       Curtin Institute for Computation                       *
*                    School of Molecular and Life Sciences                     *
*                    Curtin University, Western Australia                      *
********************************************************************************
* Version = 6.0.0 * Last modified =  12th July 2021                            *
********************************************************************************
*  optimise     - perform optimisation run                                     *
*  conp         - constant pressure calculation                                *
*  conjugate    - use conjugate gradients minimiser                            *
********************************************************************************

  Job Started  at 11:16.46 29th May        2024                               

  Number of CPUs =     1


  Total number of configurations input =      1

********************************************************************************
*  Input for Configuration =   1                                               *
********************************************************************************

  Formula = Ti4O8                                                       

  Number of irreducible atoms/shells =      12


  Total number atoms/shells =      12

  Dimensionality = 3               :  Bulk   



  Cartesian lattice vectors (Angstroms) :

        7.052191    0.198821    1.758873
        0.258739    6.344704   -0.587278
        0.819705   -0.265367    3.232925

  Cell parameters (Angstroms/Degrees):

  a =       7.2709    alpha =  99.0884
  b =       6.3771    beta  =  62.0174
  c =       3.3458    gamma =  87.4621

  Initial cell volume =         134.024851 Angs**3

  Temperature of configuration =   0.00     K 

  Pressure of configuration =         0.000 GPa 

  Fractional coordinates of asymmetric unit :

--------------------------------------------------------------------------------
   No.  Atomic       x           y          z         Charge      Occupancy
        Label      (Frac)      (Frac)     (Frac)        (e)         (Frac)  
--------------------------------------------------------------------------------
      1 Ti    c    0.308840    0.171356    0.613121     2.19600    1.000000    
      2 Ti    c    0.798946 *  0.171354 *  0.613122 *   2.19600    1.000000    
      3 Ti    c    0.644309 *  0.598070 *  0.896390 *   2.19600    1.000000    
      4 Ti    c    0.994097 *  0.881763 *  0.182003 *   2.19600    1.000000    
      5 O     c    0.308840 *  0.364178 *  0.123017 *  -1.09800    1.000000    
      6 O     c    0.798947 *  0.468638 *  0.613120 *  -1.09800    1.000000    
      7 O     c    0.606124 *  0.171354 *  0.315838 *  -1.09800    1.000000    
      8 O     c    0.991768 *  0.171354 *  0.910407 *  -1.09800    1.000000    
      9 O     c    0.927805 *  0.554508 *  0.084668 *  -1.09800    1.000000    
     10 O     c    0.282690 *  0.796864 *  0.850962 *  -1.09800    1.000000    
     11 O     c    0.665096 *  0.955803 *  0.548027 *  -1.09800    1.000000    
     12 O     c    0.983979 *  0.803160 *  0.659263 *  -1.09800    1.000000    
--------------------------------------------------------------------------------



********************************************************************************
*  General input information                                                   *
********************************************************************************

  Species output for all configurations : 

--------------------------------------------------------------------------------
  Species    Type    Atomic    Atomic    Charge       Radii (Angs)     Library
                     Number     Mass       (e)     Cova   Ionic  VDW   Symbol
--------------------------------------------------------------------------------
    Ti       Core       22      47.88   2.196000   1.470  0.000  2.190          
    O        Core        8      16.00  -1.098000   0.730  0.000  1.360          
--------------------------------------------------------------------------------


  Lattice summation method               =    Ewald          (3-D)
                                         =    Parry          (2-D)
                                         =    Saunders et al (1-D)
  Accuracy factor for lattice sums       =   12.000


  Analytic derivatives to be used

  Time limit = Infinity

  Maximum range for interatomic potentials =    100000.000000 Angstroms

  General interatomic potentials :

--------------------------------------------------------------------------------
Atom  Types   Potential      Parameter       Value         Units   Cutoffs(Ang)
  1     2                                                            Min /  Max 
--------------------------------------------------------------------------------
Ti   c Ti   c Buckingham    Buckingham A     31120.100    eV        0.000 15.000
                            Buckingham rho  0.15400000    Ang       
                            Buckingham C     5.2500000    eV*Ang^6  
--------------------------------------------------------------------------------
O    c O    c Buckingham    Buckingham A     11782.700    eV        0.000 15.000
                            Buckingham rho  0.23400000    Ang       
                            Buckingham C     30.220000    eV*Ang^6  
--------------------------------------------------------------------------------
O    c Ti   c Buckingham    Buckingham A     16957.500    eV        0.000 15.000
                            Buckingham rho  0.19400000    Ang       
                            Buckingham C     12.590000    eV*Ang^6  
--------------------------------------------------------------------------------
Ti   c Ti   c Lennard       Lennard-Jones A  1.0000000    eV*Ang^m  0.000 15.000
                            Lennard-Jones B  0.0000000    eV*Ang^n  
                            Exponent m        12          None
                            Exponent n         6          None
--------------------------------------------------------------------------------
O    c O    c Lennard       Lennard-Jones A  1.0000000    eV*Ang^m  0.000 15.000
                            Lennard-Jones B  0.0000000    eV*Ang^n  
                            Exponent m        12          None
                            Exponent n         6          None
--------------------------------------------------------------------------------
O    c Ti   c Lennard       Lennard-Jones A  1.0000000    eV*Ang^m  0.000 15.000
                            Lennard-Jones B  0.0000000    eV*Ang^n  
                            Exponent m        12          None
                            Exponent n         6          None
--------------------------------------------------------------------------------

********************************************************************************
*  Output for configuration   1                                                *
********************************************************************************


  Components of energy : 

--------------------------------------------------------------------------------
  Interatomic potentials     =          46.53286810 eV    
  Monopole - monopole (real) =         -56.75599756 eV    
  Monopole - monopole (recip)=         -96.59589255 eV    
  Monopole - monopole (total)=        -153.35189011 eV    
--------------------------------------------------------------------------------
  Total lattice energy       =        -106.81902201 eV    
--------------------------------------------------------------------------------
  Total lattice energy       =          -10306.4027 kJ/(mole unit cells)
--------------------------------------------------------------------------------


  Number of variables =       39

  Maximum number of calculations  =          1000
  Maximum Hessian update interval =            10
  Maximum step size               =   1.000000000
  Maximum parameter tolerance     =   0.000010000
  Maximum function  tolerance     =   0.000010000
  Maximum gradient  tolerance     =   0.001000000
  Maximum gradient  component     =   0.010000000

  Symmetry not applied to optimisation

  Cell parameters to be optimised using strains

  Conjugate gradient optimiser to be used

  Lower half triangular hessian to be used

  Minimiser to switch to BFGS with exact hessian
  When gradient norm is less than     0.500000

  Start of bulk optimisation :

  Cycle:      0 Energy:      -106.819022  Gnorm:     23.120979  CPU:    0.025
  Cycle:      1 Energy:      -130.465398  Gnorm:      4.300539  CPU:    0.064
  Cycle:      2 Energy:      -139.159747  Gnorm:      2.509574  CPU:    0.100
  Cycle:      3 Energy:      -142.427364  Gnorm:      2.048734  CPU:    0.134
  Cycle:      4 Energy:      -144.560649  Gnorm:      1.697487  CPU:    0.165
  Cycle:      5 Energy:      -146.427954  Gnorm:      1.932652  CPU:    0.198
  Cycle:      6 Energy:      -147.719102  Gnorm:      1.298514  CPU:    0.226
  Cycle:      7 Energy:      -148.394122  Gnorm:      0.795880  CPU:    0.262
  Cycle:      8 Energy:      -149.090236  Gnorm:      0.873505  CPU:    0.295
  Cycle:      9 Energy:      -149.641067  Gnorm:      0.760707  CPU:    0.323
  Cycle:     10 Energy:      -149.853401  Gnorm:      0.518536  CPU:    0.350
  Cycle:     11 Energy:      -150.132611  Gnorm:      0.720045  CPU:    0.387
  Cycle:     12 Energy:      -150.527044  Gnorm:      0.882559  CPU:    0.421
  Cycle:     13 Energy:      -150.943361  Gnorm:      0.634906  CPU:    0.448
  Cycle:     14 Energy:      -151.277823  Gnorm:      0.636969  CPU:    0.482
  Cycle:     15 Energy:      -151.834650  Gnorm:      0.683737  CPU:    0.518
  Cycle:     16 Energy:      -152.098339  Gnorm:      0.631998  CPU:    0.546
  Cycle:     17 Energy:      -152.545494  Gnorm:      0.768593  CPU:    0.592
  Cycle:     18 Energy:      -152.851917  Gnorm:      0.636547  CPU:    0.629
  Cycle:     19 Energy:      -153.022776  Gnorm:      0.423328  CPU:    0.669
  ** Hessian calculated **
  Cycle:     20 Energy:      -153.982973  Gnorm:      0.469290  CPU:    0.765
  ** Hessian calculated **
  Cycle:     21 Energy:      -154.318270  Gnorm:      0.542145  CPU:    0.859
  ** Hessian calculated **
  Cycle:     22 Energy:      -154.488505  Gnorm:      0.309677  CPU:    0.930
  Cycle:     23 Energy:      -154.699442  Gnorm:      0.385923  CPU:    0.967
  Cycle:     24 Energy:      -154.932700  Gnorm:      0.386471  CPU:    1.006
  Cycle:     25 Energy:      -155.191717  Gnorm:      0.436576  CPU:    1.038
  Cycle:     26 Energy:      -155.301184  Gnorm:      0.354023  CPU:    1.079
  Cycle:     27 Energy:      -155.424964  Gnorm:      0.227115  CPU:    1.122
  Cycle:     28 Energy:      -155.467766  Gnorm:      0.200083  CPU:    1.155
  Cycle:     29 Energy:      -155.505378  Gnorm:      0.161406  CPU:    1.199
  Cycle:     30 Energy:      -155.535224  Gnorm:      0.173781  CPU:    1.232
  Cycle:     31 Energy:      -155.570972  Gnorm:      0.136559  CPU:    1.273
  ** Hessian calculated **
  Cycle:     32 Energy:      -155.594968  Gnorm:      0.191535  CPU:    1.349
  Cycle:     33 Energy:      -155.612895  Gnorm:      0.124485  CPU:    1.390
  Cycle:     34 Energy:      -155.637360  Gnorm:      0.121202  CPU:    1.434
  Cycle:     35 Energy:      -155.671014  Gnorm:      0.192902  CPU:    1.475
  Cycle:     36 Energy:      -155.707497  Gnorm:      0.204578  CPU:    1.517
  Cycle:     37 Energy:      -155.777668  Gnorm:      0.205795  CPU:    1.561
  Cycle:     38 Energy:      -155.864302  Gnorm:      0.282477  CPU:    1.603
  Cycle:     39 Energy:      -155.950446  Gnorm:      0.267137  CPU:    1.638
  Cycle:     40 Energy:      -156.038596  Gnorm:      0.195841  CPU:    1.676
  Cycle:     41 Energy:      -156.095164  Gnorm:      0.190193  CPU:    1.718
  ** Hessian calculated **
  Cycle:     42 Energy:      -156.123885  Gnorm:      0.156942  CPU:    1.799
  Cycle:     43 Energy:      -156.139624  Gnorm:      0.138713  CPU:    1.834
  Cycle:     44 Energy:      -156.155516  Gnorm:      0.099824  CPU:    1.877
  Cycle:     45 Energy:      -156.167098  Gnorm:      0.109200  CPU:    1.912
  Cycle:     46 Energy:      -156.179990  Gnorm:      0.098100  CPU:    1.958
  Cycle:     47 Energy:      -156.187596  Gnorm:      0.091367  CPU:    1.993
  Cycle:     48 Energy:      -156.194170  Gnorm:      0.084107  CPU:    2.037
  Cycle:     49 Energy:      -156.202382  Gnorm:      0.064565  CPU:    2.083
  Cycle:     50 Energy:      -156.206470  Gnorm:      0.035305  CPU:    2.118
  Cycle:     51 Energy:      -156.210578  Gnorm:      0.051652  CPU:    2.161
  ** Hessian calculated **
  Cycle:     52 Energy:      -156.212327  Gnorm:      0.034919  CPU:    2.242
  Cycle:     53 Energy:      -156.214088  Gnorm:      0.051300  CPU:    2.285
  Cycle:     54 Energy:      -156.216218  Gnorm:      0.052762  CPU:    2.331
  Cycle:     55 Energy:      -156.219474  Gnorm:      0.039399  CPU:    2.374
  Cycle:     56 Energy:      -156.222796  Gnorm:      0.051430  CPU:    2.418
  Cycle:     57 Energy:      -156.226545  Gnorm:      0.050045  CPU:    2.464
  Cycle:     58 Energy:      -156.229822  Gnorm:      0.047310  CPU:    2.507
  Cycle:     59 Energy:      -156.232395  Gnorm:      0.034157  CPU:    2.542
  Cycle:     60 Energy:      -156.234311  Gnorm:      0.048024  CPU:    2.580
  Cycle:     61 Energy:      -156.237304  Gnorm:      0.073264  CPU:    2.623
  ** Hessian calculated **
  Cycle:     62 Energy:      -156.239001  Gnorm:      0.036048  CPU:    2.708
  Cycle:     63 Energy:      -156.240390  Gnorm:      0.030732  CPU:    2.750
  Cycle:     64 Energy:      -156.241541  Gnorm:      0.031325  CPU:    2.793
  Cycle:     65 Energy:      -156.242888  Gnorm:      0.033616  CPU:    2.837
  Cycle:     66 Energy:      -156.243936  Gnorm:      0.036849  CPU:    2.875
  Cycle:     67 Energy:      -156.245182  Gnorm:      0.027945  CPU:    2.918
  Cycle:     68 Energy:      -156.246522  Gnorm:      0.033263  CPU:    2.961
  Cycle:     69 Energy:      -156.248382  Gnorm:      0.033994  CPU:    3.008
  Cycle:     70 Energy:      -156.249953  Gnorm:      0.038358  CPU:    3.043
  Cycle:     71 Energy:      -156.251737  Gnorm:      0.040145  CPU:    3.086
  ** Hessian calculated **
  Cycle:     72 Energy:      -156.253227  Gnorm:      0.036485  CPU:    3.168
  Cycle:     73 Energy:      -156.254860  Gnorm:      0.037869  CPU:    3.211
  Cycle:     74 Energy:      -156.256447  Gnorm:      0.042568  CPU:    3.249
  Cycle:     75 Energy:      -156.257933  Gnorm:      0.037749  CPU:    3.292
  Cycle:     76 Energy:      -156.260010  Gnorm:      0.041588  CPU:    3.336
  Cycle:     77 Energy:      -156.261843  Gnorm:      0.048132  CPU:    3.383
  Cycle:     78 Energy:      -156.264461  Gnorm:      0.059486  CPU:    3.426
  Cycle:     79 Energy:      -156.269128  Gnorm:      0.055969  CPU:    3.469
  Cycle:     80 Energy:      -156.292371  Gnorm:      0.188173  CPU:    3.531
  Cycle:     81 Energy:      -156.330527  Gnorm:      0.482993  CPU:    3.583
  ** Hessian calculated **
  Cycle:     82 Energy:      -156.546082  Gnorm:      0.454049  CPU:    3.665
  Cycle:     83 Energy:      -156.752429  Gnorm:      0.418337  CPU:    3.708
  Cycle:     84 Energy:      -156.872209  Gnorm:      0.343137  CPU:    3.747
  Cycle:     85 Energy:      -156.979985  Gnorm:      0.286693  CPU:    3.791
  Cycle:     86 Energy:      -157.072994  Gnorm:      0.273590  CPU:    3.834
  Cycle:     87 Energy:      -157.140002  Gnorm:      0.184911  CPU:    3.881
  Cycle:     88 Energy:      -157.189551  Gnorm:      0.171540  CPU:    3.924
  Cycle:     89 Energy:      -157.231788  Gnorm:      0.151103  CPU:    3.967
  Cycle:     90 Energy:      -157.284065  Gnorm:      0.138352  CPU:    4.013
  Cycle:     91 Energy:      -157.321886  Gnorm:      0.136483  CPU:    4.048
  ** Hessian calculated **
  Cycle:     92 Energy:      -157.413081  Gnorm:      0.111330  CPU:    4.148
  Cycle:     93 Energy:      -157.422603  Gnorm:      0.068603  CPU:    4.184
  ** Hessian calculated **
  Cycle:     94 Energy:      -157.428281  Gnorm:      0.049861  CPU:    4.268
  Cycle:     95 Energy:      -157.431788  Gnorm:      0.055772  CPU:    4.318
  Cycle:     96 Energy:      -157.435723  Gnorm:      0.066502  CPU:    4.361
  Cycle:     97 Energy:      -157.441488  Gnorm:      0.060079  CPU:    4.405
  Cycle:     98 Energy:      -157.454260  Gnorm:      0.113174  CPU:    4.451
  Cycle:     99 Energy:      -157.469900  Gnorm:      0.095215  CPU:    4.495
  Cycle:    100 Energy:      -157.484322  Gnorm:      0.075775  CPU:    4.531
  Cycle:    101 Energy:      -157.496460  Gnorm:      0.063530  CPU:    4.578
  Cycle:    102 Energy:      -157.500665  Gnorm:      0.042475  CPU:    4.613
  Cycle:    103 Energy:      -157.503295  Gnorm:      0.047040  CPU:    4.649
  ** Hessian calculated **
  Cycle:    104 Energy:      -157.510127  Gnorm:      0.005303  CPU:    4.748
  Cycle:    105 Energy:      -157.510195  Gnorm:      0.000669  CPU:    4.784


  **** Optimisation achieved ****


  Final energy =    -157.51019811 eV      
  Final Gnorm  =       0.00012199

  Components of energy : 

--------------------------------------------------------------------------------
  Interatomic potentials     =          11.51085230 eV    
  Monopole - monopole (real) =         -63.24751731 eV    
  Monopole - monopole (recip)=        -105.77353311 eV    
  Monopole - monopole (total)=        -169.02105041 eV    
--------------------------------------------------------------------------------
  Total lattice energy       =        -157.51019811 eV    
--------------------------------------------------------------------------------
  Total lattice energy       =          -15197.3264 kJ/(mole unit cells)
--------------------------------------------------------------------------------

  Final fractional coordinates of atoms :

--------------------------------------------------------------------------------
   No.  Atomic        x           y          z          Radius
        Label       (Frac)      (Frac)     (Frac)       (Angs) 
--------------------------------------------------------------------------------
     1  Ti    c     0.308840    0.171356    0.613121    0.000000
     2  Ti    c     0.831175    0.160190    0.590786    0.000000
     3  Ti    c     0.831175    0.660190    0.590786    0.000000
     4  Ti    c     0.308840    0.671356    0.613120    0.000000
     5  O     c     0.123432    0.264070    0.292153    0.000000
     6  O     c     0.636095    0.507730    0.941107    0.000000
     7  O     c     0.503924    0.323815    0.573277    0.000000
     8  O     c     0.016586    0.067493    0.899002    0.000000
     9  O     c     0.016587    0.567493    0.899000    0.000000
    10  O     c     0.503923    0.823816    0.573277    0.000000
    11  O     c     0.636093    0.007731    0.941108    0.000000
    12  O     c     0.123432    0.764070    0.292155    0.000000
--------------------------------------------------------------------------------

  Final Cartesian lattice vectors (Angstroms) :

        6.182237    1.860733    2.287371
        1.733192    6.250148   -0.515090
        0.744264    0.081123    3.488826


  Final cell parameters and derivatives :

--------------------------------------------------------------------------------
       a            6.849412 Angstrom     dE/de1(xx)     0.000303 eV/strain
       b            6.506430 Angstrom     dE/de2(yy)     0.000266 eV/strain
       c            3.568251 Angstrom     dE/de3(zz)    -0.000274 eV/strain
       alpha       90.000184 Degrees      dE/de4(yz)    -0.000036 eV/strain
       beta        58.603554 Degrees      dE/de5(xz)    -0.000075 eV/strain
       gamma       61.643308 Degrees      dE/de6(xy)     0.000022 eV/strain
--------------------------------------------------------------------------------

  Primitive cell volume =           112.782692 Angs**3

  Density of cell =      4.704480 g/cm**3

  Non-primitive cell volume =           112.782692 Angs**3


  Final internal derivatives :

--------------------------------------------------------------------------------
   No.  Atomic          a             b             c           Radius
        Label          (eV)          (eV)          (eV)        (eV/Angs)
--------------------------------------------------------------------------------
      1 Ti    c       0.000000      0.000000      0.000000      0.000000
      2 Ti    c      -0.000556     -0.000147     -0.000748      0.000000
      3 Ti    c      -0.000645     -0.000435     -0.000594      0.000000
      4 Ti    c      -0.002107     -0.000873     -0.000802      0.000000
      5 O     c       0.001260      0.000687      0.000173      0.000000
      6 O     c      -0.000115     -0.000215     -0.000019      0.000000
      7 O     c       0.000738     -0.000321      0.000125      0.000000
      8 O     c       0.001115      0.000554      0.001045      0.000000
      9 O     c       0.001677      0.000652      0.001000      0.000000
     10 O     c       0.000955      0.001185     -0.000015      0.000000
     11 O     c      -0.001082      0.000125     -0.000117      0.000000
     12 O     c       0.001015      0.000483      0.000481      0.000000
--------------------------------------------------------------------------------
  Maximum abs         0.002107      0.001185      0.001045      0.000000
--------------------------------------------------------------------------------


  Time to end of optimisation =       4.8234 seconds


  Peak dynamic memory used =       1.84 MB 


  Timing analysis for GULP :

--------------------------------------------------------------------------------
  Task / Subroutine                                          Time (Seconds)
--------------------------------------------------------------------------------
  Calculation of reciprocal space energy and derivatives          0.1483
  Calculation of real space energy and derivatives                4.6416
  Calculation and manipulation of Hessian matrix                  0.0013
  Calculation of matrix inversion                                 0.0023
  Global summation overhead                                       0.0007
--------------------------------------------------------------------------------
  Total CPU time                                                  4.8235
--------------------------------------------------------------------------------


  Job Finished at 11:16.51 29th May        2024                               

