********************************************************************************
*                       GENERAL UTILITY LATTICE PROGRAM                        *
*                                 Julian Gale                                  *
*                       Curtin Institute for Computation                       *
*                    School of Molecular and Life Sciences                     *
*                    Curtin University, Western Australia                      *
********************************************************************************
* Version = 6.0.0 * Last modified =  12th July 2021                            *
********************************************************************************
*  optimise     - perform optimisation run                                     *
*  conp         - constant pressure calculation                                *
*  conjugate    - use conjugate gradients minimiser                            *
********************************************************************************

  Job Started  at 11:17.48 29th May        2024                               

  Number of CPUs =     1


  Total number of configurations input =      1

********************************************************************************
*  Input for Configuration =   1                                               *
********************************************************************************

  Formula = Ti4O8                                                       

  Number of irreducible atoms/shells =      12


  Total number atoms/shells =      12

  Dimensionality = 3               :  Bulk   



  Cartesian lattice vectors (Angstroms) :

        5.534481    0.419279   -0.125310
       -0.663929    3.733918    0.739271
        0.442329    0.988103    6.571981

  Cell parameters (Angstroms/Degrees):

  a =       5.5518    alpha =  71.2926
  b =       3.8639    beta  =  86.8393
  c =       6.6606    gamma =  95.8908

  Initial cell volume =         134.024851 Angs**3

  Temperature of configuration =   0.00     K 

  Pressure of configuration =         0.000 GPa 

  Fractional coordinates of asymmetric unit :

--------------------------------------------------------------------------------
   No.  Atomic       x           y          z         Charge      Occupancy
        Label      (Frac)      (Frac)     (Frac)        (e)         (Frac)  
--------------------------------------------------------------------------------
      1 Ti    c    0.865337    0.000100    0.332301     2.19600    1.000000    
      2 Ti    c    0.361013 *  0.504416 *  0.332295 *   2.19600    1.000000    
      3 Ti    c    0.361012 *  0.176561 *  0.836611 *   2.19600    1.000000    
      4 Ti    c    0.865334 *  0.680875 *  0.836618 *   2.19600    1.000000    
      5 O     c    0.133095 *  0.455368 *  0.005511 *  -1.09800    1.000000    
      6 O     c    0.084619 *  0.729924 *  0.501197 *  -1.09800    1.000000    
      7 O     c    0.637424 *  0.729914 *  0.163390 *  -1.09800    1.000000    
      8 O     c    0.084628 *  0.959683 *  0.005514 *  -1.09800    1.000000    
      9 O     c    0.637431 *  0.959693 *  0.667725 *  -1.09800    1.000000    
     10 O     c    0.133097 *  0.225609 *  0.501196 *  -1.09800    1.000000    
     11 O     c    0.588933 *  0.455376 *  0.667706 *  -1.09800    1.000000    
     12 O     c    0.588928 *  0.225601 *  0.163400 *  -1.09800    1.000000    
--------------------------------------------------------------------------------



********************************************************************************
*  General input information                                                   *
********************************************************************************

  Species output for all configurations : 

--------------------------------------------------------------------------------
  Species    Type    Atomic    Atomic    Charge       Radii (Angs)     Library
                     Number     Mass       (e)     Cova   Ionic  VDW   Symbol
--------------------------------------------------------------------------------
    Ti       Core       22      47.88   2.196000   1.470  0.000  2.190          
    O        Core        8      16.00  -1.098000   0.730  0.000  1.360          
--------------------------------------------------------------------------------


  Lattice summation method               =    Ewald          (3-D)
                                         =    Parry          (2-D)
                                         =    Saunders et al (1-D)
  Accuracy factor for lattice sums       =   12.000


  Analytic derivatives to be used

  Time limit = Infinity

  Maximum range for interatomic potentials =    100000.000000 Angstroms

  General interatomic potentials :

--------------------------------------------------------------------------------
Atom  Types   Potential      Parameter       Value         Units   Cutoffs(Ang)
  1     2                                                            Min /  Max 
--------------------------------------------------------------------------------
Ti   c Ti   c Buckingham    Buckingham A     31120.100    eV        0.000 15.000
                            Buckingham rho  0.15400000    Ang       
                            Buckingham C     5.2500000    eV*Ang^6  
--------------------------------------------------------------------------------
O    c O    c Buckingham    Buckingham A     11782.700    eV        0.000 15.000
                            Buckingham rho  0.23400000    Ang       
                            Buckingham C     30.220000    eV*Ang^6  
--------------------------------------------------------------------------------
O    c Ti   c Buckingham    Buckingham A     16957.500    eV        0.000 15.000
                            Buckingham rho  0.19400000    Ang       
                            Buckingham C     12.590000    eV*Ang^6  
--------------------------------------------------------------------------------
Ti   c Ti   c Lennard       Lennard-Jones A  1.0000000    eV*Ang^m  0.000 15.000
                            Lennard-Jones B  0.0000000    eV*Ang^n  
                            Exponent m        12          None
                            Exponent n         6          None
--------------------------------------------------------------------------------
O    c O    c Lennard       Lennard-Jones A  1.0000000    eV*Ang^m  0.000 15.000
                            Lennard-Jones B  0.0000000    eV*Ang^n  
                            Exponent m        12          None
                            Exponent n         6          None
--------------------------------------------------------------------------------
O    c Ti   c Lennard       Lennard-Jones A  1.0000000    eV*Ang^m  0.000 15.000
                            Lennard-Jones B  0.0000000    eV*Ang^n  
                            Exponent m        12          None
                            Exponent n         6          None
--------------------------------------------------------------------------------

********************************************************************************
*  Output for configuration   1                                                *
********************************************************************************


  Components of energy : 

--------------------------------------------------------------------------------
  Interatomic potentials     =          26.63273401 eV    
  Monopole - monopole (real) =         -53.86489701 eV    
  Monopole - monopole (recip)=         -99.63444443 eV    
  Monopole - monopole (total)=        -153.49934144 eV    
--------------------------------------------------------------------------------
  Total lattice energy       =        -126.86660743 eV    
--------------------------------------------------------------------------------
  Total lattice energy       =          -12240.6883 kJ/(mole unit cells)
--------------------------------------------------------------------------------


  Number of variables =       39

  Maximum number of calculations  =          1000
  Maximum Hessian update interval =            10
  Maximum step size               =   1.000000000
  Maximum parameter tolerance     =   0.000010000
  Maximum function  tolerance     =   0.000010000
  Maximum gradient  tolerance     =   0.001000000
  Maximum gradient  component     =   0.010000000

  Symmetry not applied to optimisation

  Cell parameters to be optimised using strains

  Conjugate gradient optimiser to be used

  Lower half triangular hessian to be used

  Minimiser to switch to BFGS with exact hessian
  When gradient norm is less than     0.500000

  Start of bulk optimisation :

  Cycle:      0 Energy:      -126.866607  Gnorm:      4.835499  CPU:    0.026
  Cycle:      1 Energy:      -144.464178  Gnorm:      1.940570  CPU:    0.069
  Cycle:      2 Energy:      -149.657359  Gnorm:      1.357167  CPU:    0.097
  Cycle:      3 Energy:      -152.796644  Gnorm:      1.314805  CPU:    0.128
  Cycle:      4 Energy:      -154.566633  Gnorm:      1.143082  CPU:    0.154
  Cycle:      5 Energy:      -156.569673  Gnorm:      0.764236  CPU:    0.187
  Cycle:      6 Energy:      -157.605139  Gnorm:      0.613500  CPU:    0.218
  Cycle:      7 Energy:      -158.225044  Gnorm:      0.390231  CPU:    0.249
  ** Hessian calculated **
  Cycle:      8 Energy:      -158.632021  Gnorm:      0.391281  CPU:    0.323
  Cycle:      9 Energy:      -159.001437  Gnorm:      0.142552  CPU:    0.346
  Cycle:     10 Energy:      -159.044012  Gnorm:      0.069376  CPU:    0.368
  Cycle:     11 Energy:      -159.058014  Gnorm:      0.034546  CPU:    0.390
  Cycle:     12 Energy:      -159.060387  Gnorm:      0.013958  CPU:    0.412
  Cycle:     13 Energy:      -159.060847  Gnorm:      0.004656  CPU:    0.435
  Cycle:     14 Energy:      -159.060904  Gnorm:      0.001709  CPU:    0.457


  **** Optimisation achieved ****


  Final energy =    -159.06090926 eV      
  Final Gnorm  =       0.00045110

  Components of energy : 

--------------------------------------------------------------------------------
  Interatomic potentials     =          12.29004578 eV    
  Monopole - monopole (real) =         -67.80787386 eV    
  Monopole - monopole (recip)=        -103.54308119 eV    
  Monopole - monopole (total)=        -171.35095504 eV    
--------------------------------------------------------------------------------
  Total lattice energy       =        -159.06090926 eV    
--------------------------------------------------------------------------------
  Total lattice energy       =          -15346.9463 kJ/(mole unit cells)
--------------------------------------------------------------------------------

  Final fractional coordinates of atoms :

--------------------------------------------------------------------------------
   No.  Atomic        x           y          z          Radius
        Label       (Frac)      (Frac)     (Frac)       (Angs) 
--------------------------------------------------------------------------------
     1  Ti    c     0.865337    0.000100    0.332301    0.000000
     2  Ti    c     0.365345    0.500110    0.332289    0.000000
     3  Ti    c     0.365353    0.175090    0.832299    0.000000
     4  Ti    c     0.865365    0.675079    0.832293    0.000000
     5  O     c     0.139389    0.451491    0.999737    0.000000
     6  O     c     0.091339    0.723686    0.499758    0.000000
     7  O     c     0.639414    0.723678    0.164857    0.000000
     8  O     c     0.091326    0.951495    0.999761    0.000000
     9  O     c     0.639378    0.951499    0.664851    0.000000
    10  O     c     0.139381    0.223689    0.499741    0.000000
    11  O     c     0.591322    0.451502    0.664845    0.000000
    12  O     c     0.591327    0.223693    0.164844    0.000000
--------------------------------------------------------------------------------

  Final Cartesian lattice vectors (Angstroms) :

        4.484033    0.526879   -0.255569
       -0.639304    5.336978   -0.214479
        0.253812    0.228397    4.923783


  Final cell parameters and derivatives :

--------------------------------------------------------------------------------
       a            4.522109 Angstrom     dE/de1(xx)    -0.000013 eV/strain
       b            5.379409 Angstrom     dE/de2(yy)     0.004112 eV/strain
       c            4.935607 Angstrom     dE/de3(zz)    -0.004993 eV/strain
       alpha       89.998621 Degrees      dE/de4(yz)     0.001577 eV/strain
       beta        89.999819 Degrees      dE/de5(xz)     0.000760 eV/strain
       gamma       89.999774 Degrees      dE/de6(xy)     0.001272 eV/strain
--------------------------------------------------------------------------------

  Primitive cell volume =           120.064948 Angs**3

  Density of cell =      4.419141 g/cm**3

  Non-primitive cell volume =           120.064948 Angs**3


  Final internal derivatives :

--------------------------------------------------------------------------------
   No.  Atomic          a             b             c           Radius
        Label          (eV)          (eV)          (eV)        (eV/Angs)
--------------------------------------------------------------------------------
      1 Ti    c       0.000000      0.000000      0.000000      0.000000
      2 Ti    c      -0.004194      0.001055     -0.001654      0.000000
      3 Ti    c       0.001068      0.008352      0.001688      0.000000
      4 Ti    c       0.003823      0.002431     -0.002652      0.000000
      5 O     c       0.000640     -0.003475     -0.001692      0.000000
      6 O     c       0.003325     -0.004568      0.002142      0.000000
      7 O     c       0.006443      0.000029      0.001158      0.000000
      8 O     c      -0.002889     -0.000742      0.004267      0.000000
      9 O     c      -0.001893      0.000610     -0.001608      0.000000
     10 O     c       0.000988      0.001915     -0.000327      0.000000
     11 O     c      -0.001200     -0.000687      0.000443      0.000000
     12 O     c       0.001210      0.001511     -0.001131      0.000000
--------------------------------------------------------------------------------
  Maximum abs         0.006443      0.008352      0.004267      0.000000
--------------------------------------------------------------------------------


  Time to end of optimisation =       0.4793 seconds


  Peak dynamic memory used =       1.84 MB 


  Timing analysis for GULP :

--------------------------------------------------------------------------------
  Task / Subroutine                                          Time (Seconds)
--------------------------------------------------------------------------------
  Calculation of reciprocal space energy and derivatives          0.0199
  Calculation of real space energy and derivatives                0.4470
  Calculation and manipulation of Hessian matrix                  0.0001
  Calculation of matrix inversion                                 0.0002
--------------------------------------------------------------------------------
  Total CPU time                                                  0.4793
--------------------------------------------------------------------------------


  Job Finished at 11:17.48 29th May        2024                               

