********************************************************************************
*                       GENERAL UTILITY LATTICE PROGRAM                        *
*                                 Julian Gale                                  *
*                       Curtin Institute for Computation                       *
*                    School of Molecular and Life Sciences                     *
*                    Curtin University, Western Australia                      *
********************************************************************************
* Version = 6.0.0 * Last modified =  12th July 2021                            *
********************************************************************************
*  optimise     - perform optimisation run                                     *
*  conp         - constant pressure calculation                                *
*  conjugate    - use conjugate gradients minimiser                            *
********************************************************************************

  Job Started  at 11:18.02 29th May        2024                               

  Number of CPUs =     1


  Total number of configurations input =      1

********************************************************************************
*  Input for Configuration =   1                                               *
********************************************************************************

  Formula = Ti4O8                                                       

  Number of irreducible atoms/shells =      12


  Total number atoms/shells =      12

  Dimensionality = 3               :  Bulk   



  Cartesian lattice vectors (Angstroms) :

       13.579529   -4.902782   -2.972681
       -2.995473    6.095912   -6.610764
       -1.051507   -3.377034    3.705807

  Cell parameters (Angstroms/Degrees):

  a =      14.7403    alpha = 149.7298
  b =       9.4781    beta  =  96.6452
  c =       5.1228    gamma = 111.3714

  Initial cell volume =         134.024851 Angs**3

  Temperature of configuration =   0.00     K 

  Pressure of configuration =         0.000 GPa 

  Fractional coordinates of asymmetric unit :

--------------------------------------------------------------------------------
   No.  Atomic       x           y          z         Charge      Occupancy
        Label      (Frac)      (Frac)     (Frac)        (e)         (Frac)  
--------------------------------------------------------------------------------
      1 Ti    c    0.118289    0.060062    0.247159     2.19600    1.000000    
      2 Ti    c    0.325860 *  0.060061 *  0.247160 *   2.19600    1.000000    
      3 Ti    c    0.325861 *  0.267631 *  0.039588 *   2.19600    1.000000    
      4 Ti    c    0.118290 *  0.267632 *  0.039588 *   2.19600    1.000000    
      5 O     c    0.199954 *  0.267632 *  0.165495 *  -1.09800    1.000000    
      6 O     c    0.118289 *  0.141726 *  0.039589 *  -1.09800    1.000000    
      7 O     c    0.325861 *  0.185967 *  0.247159 *  -1.09800    1.000000    
      8 O     c    0.244195 *  0.060061 *  0.121253 *  -1.09800    1.000000    
      9 O     c    0.118289 *  0.393539 *  0.039587 *  -1.09800    1.000000    
     10 O     c    0.407525 *  0.060061 *  0.373066 *  -1.09800    1.000000    
     11 O     c    0.036625 *  0.267632 *  0.328823 *  -1.09800    1.000000    
     12 O     c    0.325861 *  0.349297 *  0.247159 *  -1.09800    1.000000    
--------------------------------------------------------------------------------



********************************************************************************
*  General input information                                                   *
********************************************************************************

  Species output for all configurations : 

--------------------------------------------------------------------------------
  Species    Type    Atomic    Atomic    Charge       Radii (Angs)     Library
                     Number     Mass       (e)     Cova   Ionic  VDW   Symbol
--------------------------------------------------------------------------------
    Ti       Core       22      47.88   2.196000   1.470  0.000  2.190          
    O        Core        8      16.00  -1.098000   0.730  0.000  1.360          
--------------------------------------------------------------------------------


  Lattice summation method               =    Ewald          (3-D)
                                         =    Parry          (2-D)
                                         =    Saunders et al (1-D)
  Accuracy factor for lattice sums       =   12.000


  Analytic derivatives to be used

  Time limit = Infinity

  Maximum range for interatomic potentials =    100000.000000 Angstroms

  General interatomic potentials :

--------------------------------------------------------------------------------
Atom  Types   Potential      Parameter       Value         Units   Cutoffs(Ang)
  1     2                                                            Min /  Max 
--------------------------------------------------------------------------------
Ti   c Ti   c Buckingham    Buckingham A     31120.100    eV        0.000 15.000
                            Buckingham rho  0.15400000    Ang       
                            Buckingham C     5.2500000    eV*Ang^6  
--------------------------------------------------------------------------------
O    c O    c Buckingham    Buckingham A     11782.700    eV        0.000 15.000
                            Buckingham rho  0.23400000    Ang       
                            Buckingham C     30.220000    eV*Ang^6  
--------------------------------------------------------------------------------
O    c Ti   c Buckingham    Buckingham A     16957.500    eV        0.000 15.000
                            Buckingham rho  0.19400000    Ang       
                            Buckingham C     12.590000    eV*Ang^6  
--------------------------------------------------------------------------------
Ti   c Ti   c Lennard       Lennard-Jones A  1.0000000    eV*Ang^m  0.000 15.000
                            Lennard-Jones B  0.0000000    eV*Ang^n  
                            Exponent m        12          None
                            Exponent n         6          None
--------------------------------------------------------------------------------
O    c O    c Lennard       Lennard-Jones A  1.0000000    eV*Ang^m  0.000 15.000
                            Lennard-Jones B  0.0000000    eV*Ang^n  
                            Exponent m        12          None
                            Exponent n         6          None
--------------------------------------------------------------------------------
O    c Ti   c Lennard       Lennard-Jones A  1.0000000    eV*Ang^m  0.000 15.000
                            Lennard-Jones B  0.0000000    eV*Ang^n  
                            Exponent m        12          None
                            Exponent n         6          None
--------------------------------------------------------------------------------

********************************************************************************
*  Output for configuration   1                                                *
********************************************************************************


  Components of energy : 

--------------------------------------------------------------------------------
  Interatomic potentials     =        2426.46116228 eV    
  Monopole - monopole (real) =        -103.16313997 eV    
  Monopole - monopole (recip)=         -97.56856879 eV    
  Monopole - monopole (total)=        -200.73170875 eV    
--------------------------------------------------------------------------------
  Total lattice energy       =        2225.72945353 eV    
--------------------------------------------------------------------------------
  Total lattice energy       =          214748.8689 kJ/(mole unit cells)
--------------------------------------------------------------------------------


  Number of variables =       39

  Maximum number of calculations  =          1000
  Maximum Hessian update interval =            10
  Maximum step size               =   1.000000000
  Maximum parameter tolerance     =   0.000010000
  Maximum function  tolerance     =   0.000010000
  Maximum gradient  tolerance     =   0.001000000
  Maximum gradient  component     =   0.010000000

  Symmetry not applied to optimisation

  Cell parameters to be optimised using strains

  Conjugate gradient optimiser to be used

  Lower half triangular hessian to be used

  Minimiser to switch to BFGS with exact hessian
  When gradient norm is less than     0.500000

  Start of bulk optimisation :

  Cycle:      0 Energy:      2225.729454  Gnorm:  10747.941791  CPU:    0.042
  Cycle:      1 Energy:       584.224097  Gnorm:    511.048612  CPU:    0.171
  Cycle:      2 Energy:       193.027515  Gnorm:    235.630819  CPU:    0.297
  Cycle:      3 Energy:       119.021759  Gnorm:    115.985278  CPU:    0.395
  Cycle:      4 Energy:        69.380751  Gnorm:    108.458303  CPU:    0.494
  Cycle:      5 Energy:        30.306022  Gnorm:     64.771950  CPU:    0.558
  Cycle:      6 Energy:        -8.533297  Gnorm:     69.889322  CPU:    0.656
  Cycle:      7 Energy:       -67.695511  Gnorm:     39.598593  CPU:    0.780
  Cycle:      8 Energy:       -92.725283  Gnorm:     20.691551  CPU:    0.908
  Cycle:      9 Energy:       -99.277626  Gnorm:     17.306478  CPU:    0.972
  Cycle:     10 Energy:      -102.478869  Gnorm:     10.940191  CPU:    1.035
  Cycle:     11 Energy:      -111.141121  Gnorm:     12.800454  CPU:    1.115
  Cycle:     12 Energy:      -115.503426  Gnorm:     15.135970  CPU:    1.177
  Cycle:     13 Energy:      -118.550663  Gnorm:      9.828148  CPU:    1.242
  Cycle:     14 Energy:      -125.947957  Gnorm:      6.417367  CPU:    1.335
  Cycle:     15 Energy:      -130.674730  Gnorm:      6.857859  CPU:    1.410
  Cycle:     16 Energy:      -134.205545  Gnorm:      4.830196  CPU:    1.470
  Cycle:     17 Energy:      -136.456692  Gnorm:      4.314650  CPU:    1.545
  Cycle:     18 Energy:      -138.527674  Gnorm:      3.325303  CPU:    1.617
  Cycle:     19 Energy:      -139.932632  Gnorm:      2.291022  CPU:    1.691
  Cycle:     20 Energy:      -140.767280  Gnorm:      2.178153  CPU:    1.763
  Cycle:     21 Energy:      -141.678948  Gnorm:      1.277739  CPU:    1.851
  Cycle:     22 Energy:      -142.036663  Gnorm:      1.080977  CPU:    1.926
  Cycle:     23 Energy:      -142.325167  Gnorm:      1.527263  CPU:    1.997
  Cycle:     24 Energy:      -142.660240  Gnorm:      1.838603  CPU:    2.054
  Cycle:     25 Energy:      -143.559558  Gnorm:      2.912362  CPU:    2.128
  Cycle:     26 Energy:      -144.125558  Gnorm:      2.506697  CPU:    2.200
  Cycle:     27 Energy:      -144.879467  Gnorm:      1.393091  CPU:    2.273
  Cycle:     28 Energy:      -145.197198  Gnorm:      1.113603  CPU:    2.344
  Cycle:     29 Energy:      -145.409061  Gnorm:      1.105831  CPU:    2.417
  Cycle:     30 Energy:      -145.522726  Gnorm:      0.702950  CPU:    2.474
  Cycle:     31 Energy:      -145.622293  Gnorm:      0.759470  CPU:    2.548
  Cycle:     32 Energy:      -145.754613  Gnorm:      0.677189  CPU:    2.618
  Cycle:     33 Energy:      -145.829158  Gnorm:      0.623655  CPU:    2.677
  Cycle:     34 Energy:      -145.872795  Gnorm:      0.392099  CPU:    2.734
  ** Hessian calculated **
  Cycle:     35 Energy:      -146.204925  Gnorm:      0.368030  CPU:    2.873
  ** Hessian calculated **
  Cycle:     36 Energy:      -146.279503  Gnorm:      0.700276  CPU:    2.987
  Cycle:     37 Energy:      -146.396213  Gnorm:      0.643625  CPU:    3.048
  Cycle:     38 Energy:      -146.473958  Gnorm:      0.595758  CPU:    3.089
  Cycle:     39 Energy:      -146.587906  Gnorm:      0.498040  CPU:    3.141
  Cycle:     40 Energy:      -146.648739  Gnorm:      0.332836  CPU:    3.182
  Cycle:     41 Energy:      -146.688332  Gnorm:      0.444829  CPU:    3.222
  Cycle:     42 Energy:      -146.778962  Gnorm:      0.789315  CPU:    3.274
  Cycle:     43 Energy:      -146.953657  Gnorm:      1.177631  CPU:    3.324
  Cycle:     44 Energy:      -147.277130  Gnorm:      1.405667  CPU:    3.377
  Cycle:     45 Energy:      -147.635072  Gnorm:      0.860861  CPU:    3.419
  ** Hessian calculated **
  Cycle:     46 Energy:      -147.956025  Gnorm:      0.966922  CPU:    3.508
  Cycle:     47 Energy:      -148.109159  Gnorm:      0.771223  CPU:    3.549
  Cycle:     48 Energy:      -148.263001  Gnorm:      0.644637  CPU:    3.599
  Cycle:     49 Energy:      -148.480012  Gnorm:      0.941282  CPU:    3.649
  Cycle:     50 Energy:      -148.772120  Gnorm:      1.273016  CPU:    3.702
  Cycle:     51 Energy:      -149.631614  Gnorm:      1.756501  CPU:    3.773
  Cycle:     52 Energy:      -149.981315  Gnorm:      1.641630  CPU:    3.829
  Cycle:     53 Energy:      -150.552472  Gnorm:      1.286432  CPU:    3.872
  Cycle:     54 Energy:      -151.257057  Gnorm:      1.229925  CPU:    3.927
  Cycle:     55 Energy:      -151.674651  Gnorm:      1.256341  CPU:    3.971
  ** Hessian calculated **
  Cycle:     56 Energy:      -151.843166  Gnorm:      0.483577  CPU:    4.064
  Cycle:     57 Energy:      -151.934285  Gnorm:      0.453706  CPU:    4.142
  Cycle:     58 Energy:      -152.001177  Gnorm:      0.510604  CPU:    4.220
  Cycle:     59 Energy:      -152.101087  Gnorm:      0.561027  CPU:    4.274
  Cycle:     60 Energy:      -152.256084  Gnorm:      0.591929  CPU:    4.327
  Cycle:     61 Energy:      -152.351150  Gnorm:      0.486806  CPU:    4.370
  Cycle:     62 Energy:      -152.466724  Gnorm:      0.485556  CPU:    4.426
  Cycle:     63 Energy:      -152.522748  Gnorm:      0.399173  CPU:    4.470
  Cycle:     64 Energy:      -152.641743  Gnorm:      0.593277  CPU:    4.527
  Cycle:     65 Energy:      -152.803883  Gnorm:      0.649121  CPU:    4.581
  ** Hessian calculated **
  Cycle:     66 Energy:      -153.400171  Gnorm:      0.671686  CPU:    4.706
  ** Hessian calculated **
  Cycle:     67 Energy:      -153.479440  Gnorm:      0.420540  CPU:    4.788
  Cycle:     68 Energy:      -153.522581  Gnorm:      0.332641  CPU:    4.865
  Cycle:     69 Energy:      -153.544022  Gnorm:      0.253666  CPU:    4.924
  Cycle:     70 Energy:      -153.566294  Gnorm:      0.277829  CPU:    4.998
  Cycle:     71 Energy:      -153.603454  Gnorm:      0.293617  CPU:    5.074
  Cycle:     72 Energy:      -153.658017  Gnorm:      0.455197  CPU:    5.148
  Cycle:     73 Energy:      -153.767610  Gnorm:      0.530623  CPU:    5.225
  Cycle:     74 Energy:      -153.887591  Gnorm:      0.633500  CPU:    5.299
  Cycle:     75 Energy:      -153.986066  Gnorm:      0.336908  CPU:    5.361
  Cycle:     76 Energy:      -154.047158  Gnorm:      0.387194  CPU:    5.421
  ** Hessian calculated **
  Cycle:     77 Energy:      -154.396360  Gnorm:      0.308394  CPU:    5.568
  ** Hessian calculated **
  Cycle:     78 Energy:      -154.617211  Gnorm:      0.168006  CPU:    5.687
  Cycle:     79 Energy:      -154.637001  Gnorm:      0.088983  CPU:    5.730
  Cycle:     80 Energy:      -154.639740  Gnorm:      0.067605  CPU:    5.781
  Cycle:     81 Energy:      -154.642279  Gnorm:      0.043425  CPU:    5.822
  ** Hessian calculated **
  Cycle:     82 Energy:      -154.642621  Gnorm:      0.015275  CPU:    5.902
  Cycle:     83 Energy:      -154.642694  Gnorm:      0.011343  CPU:    5.943
  Cycle:     84 Energy:      -154.642726  Gnorm:      0.006776  CPU:    5.987
  Cycle:     85 Energy:      -154.642754  Gnorm:      0.008218  CPU:    6.037
  Cycle:     86 Energy:      -154.642779  Gnorm:      0.011818  CPU:    6.078
  Cycle:     87 Energy:      -154.642818  Gnorm:      0.011657  CPU:    6.122
  Cycle:     88 Energy:      -154.642857  Gnorm:      0.009353  CPU:    6.172
  Cycle:     89 Energy:      -154.642896  Gnorm:      0.008607  CPU:    6.223
  Cycle:     90 Energy:      -154.642936  Gnorm:      0.011721  CPU:    6.276
  Cycle:     91 Energy:      -154.643007  Gnorm:      0.012835  CPU:    6.327
  ** Hessian calculated **
  Cycle:     92 Energy:      -154.643033  Gnorm:      0.008859  CPU:    6.407
  Cycle:     93 Energy:      -154.643065  Gnorm:      0.011146  CPU:    6.448
  Cycle:     94 Energy:      -154.643091  Gnorm:      0.009106  CPU:    6.492
  Cycle:     95 Energy:      -154.643118  Gnorm:      0.008639  CPU:    6.532
  Cycle:     96 Energy:      -154.643142  Gnorm:      0.008468  CPU:    6.573
  Cycle:     97 Energy:      -154.643170  Gnorm:      0.009523  CPU:    6.617
  Cycle:     98 Energy:      -154.643202  Gnorm:      0.007916  CPU:    6.667
  Cycle:     99 Energy:      -154.643239  Gnorm:      0.010215  CPU:    6.708
  Cycle:    100 Energy:      -154.643313  Gnorm:      0.014721  CPU:    6.761
  Cycle:    101 Energy:      -154.643512  Gnorm:      0.022893  CPU:    6.822
  ** Hessian calculated **
  Cycle:    102 Energy:      -154.643638  Gnorm:      0.014265  CPU:    6.902
  Cycle:    103 Energy:      -154.643695  Gnorm:      0.010894  CPU:    6.953
  Cycle:    104 Energy:      -154.643724  Gnorm:      0.009414  CPU:    6.996
  Cycle:    105 Energy:      -154.643758  Gnorm:      0.009737  CPU:    7.037
  Cycle:    106 Energy:      -154.643809  Gnorm:      0.009948  CPU:    7.088
  Cycle:    107 Energy:      -154.643877  Gnorm:      0.012774  CPU:    7.141
  Cycle:    108 Energy:      -154.643955  Gnorm:      0.012374  CPU:    7.192
  Cycle:    109 Energy:      -154.644029  Gnorm:      0.011494  CPU:    7.245
  Cycle:    110 Energy:      -154.644076  Gnorm:      0.013852  CPU:    7.285
  Cycle:    111 Energy:      -154.644128  Gnorm:      0.015603  CPU:    7.326
  ** Hessian calculated **
  Cycle:    112 Energy:      -154.644160  Gnorm:      0.009015  CPU:    7.406
  Cycle:    113 Energy:      -154.644202  Gnorm:      0.009232  CPU:    7.476
  Cycle:    114 Energy:      -154.644251  Gnorm:      0.010402  CPU:    7.530
  Cycle:    115 Energy:      -154.644298  Gnorm:      0.010178  CPU:    7.580
  Cycle:    116 Energy:      -154.644368  Gnorm:      0.013579  CPU:    7.633
  Cycle:    117 Energy:      -154.644431  Gnorm:      0.015055  CPU:    7.684
  Cycle:    118 Energy:      -154.644498  Gnorm:      0.014050  CPU:    7.737
  Cycle:    119 Energy:      -154.644594  Gnorm:      0.011725  CPU:    7.788
  Cycle:    120 Energy:      -154.644700  Gnorm:      0.014925  CPU:    7.842
  Cycle:    121 Energy:      -154.644908  Gnorm:      0.022685  CPU:    7.903
  ** Hessian calculated **
  Cycle:    122 Energy:      -154.645041  Gnorm:      0.017256  CPU:    7.983
  Cycle:    123 Energy:      -154.645103  Gnorm:      0.013101  CPU:    8.034
  Cycle:    124 Energy:      -154.645175  Gnorm:      0.015136  CPU:    8.088
  Cycle:    125 Energy:      -154.645244  Gnorm:      0.020706  CPU:    8.128
  Cycle:    126 Energy:      -154.645412  Gnorm:      0.019592  CPU:    8.169
  Cycle:    127 Energy:      -154.645520  Gnorm:      0.021450  CPU:    8.213
  Cycle:    128 Energy:      -154.645662  Gnorm:      0.018190  CPU:    8.263
  Cycle:    129 Energy:      -154.645750  Gnorm:      0.017506  CPU:    8.305
  Cycle:    130 Energy:      -154.645829  Gnorm:      0.011517  CPU:    8.348
  Cycle:    131 Energy:      -154.645891  Gnorm:      0.014688  CPU:    8.389
  ** Hessian calculated **
  Cycle:    132 Energy:      -154.645943  Gnorm:      0.007102  CPU:    8.470
  Cycle:    133 Energy:      -154.645994  Gnorm:      0.015566  CPU:    8.530
  Cycle:    134 Energy:      -154.646075  Gnorm:      0.018022  CPU:    8.581
  Cycle:    135 Energy:      -154.646180  Gnorm:      0.017575  CPU:    8.634
  Cycle:    136 Energy:      -154.646334  Gnorm:      0.017059  CPU:    8.685
  Cycle:    137 Energy:      -154.646527  Gnorm:      0.026602  CPU:    8.738
  Cycle:    138 Energy:      -154.646672  Gnorm:      0.022611  CPU:    8.779
  Cycle:    139 Energy:      -154.646849  Gnorm:      0.017872  CPU:    8.830
  Cycle:    140 Energy:      -154.647061  Gnorm:      0.029372  CPU:    8.883
  Cycle:    141 Energy:      -154.647618  Gnorm:      0.046116  CPU:    8.944
  ** Hessian calculated **
  Cycle:    142 Energy:      -154.647978  Gnorm:      0.026319  CPU:    9.024
  Cycle:    143 Energy:      -154.648222  Gnorm:      0.021997  CPU:    9.075
  Cycle:    144 Energy:      -154.648436  Gnorm:      0.025734  CPU:    9.119
  Cycle:    145 Energy:      -154.648711  Gnorm:      0.033889  CPU:    9.169
  Cycle:    146 Energy:      -154.649051  Gnorm:      0.028749  CPU:    9.220
  Cycle:    147 Energy:      -154.649404  Gnorm:      0.027882  CPU:    9.270
  Cycle:    148 Energy:      -154.649620  Gnorm:      0.026156  CPU:    9.311
  Cycle:    149 Energy:      -154.649814  Gnorm:      0.023240  CPU:    9.352
  Cycle:    150 Energy:      -154.649950  Gnorm:      0.014513  CPU:    9.393
  Cycle:    151 Energy:      -154.650036  Gnorm:      0.017250  CPU:    9.433
  ** Hessian calculated **
  Cycle:    152 Energy:      -154.650110  Gnorm:      0.011297  CPU:    9.511
  Cycle:    153 Energy:      -154.650222  Gnorm:      0.022178  CPU:    9.561
  Cycle:    154 Energy:      -154.650389  Gnorm:      0.026154  CPU:    9.611
  Cycle:    155 Energy:      -154.650568  Gnorm:      0.026984  CPU:    9.662
  Cycle:    156 Energy:      -154.650893  Gnorm:      0.021709  CPU:    9.712
  Cycle:    157 Energy:      -154.651372  Gnorm:      0.030178  CPU:    9.763
  Cycle:    158 Energy:      -154.651797  Gnorm:      0.027271  CPU:    9.813
  Cycle:    159 Energy:      -154.652186  Gnorm:      0.039612  CPU:    9.864
  Cycle:    160 Energy:      -154.652817  Gnorm:      0.048553  CPU:    9.914
  Cycle:    161 Energy:      -154.653973  Gnorm:      0.079848  CPU:    9.965
  ** Hessian calculated **
  Cycle:    162 Energy:      -154.654978  Gnorm:      0.052442  CPU:   10.042
  Cycle:    163 Energy:      -154.655756  Gnorm:      0.042542  CPU:   10.093
  Cycle:    164 Energy:      -154.656192  Gnorm:      0.032215  CPU:   10.133
  Cycle:    165 Energy:      -154.656801  Gnorm:      0.037445  CPU:   10.184
  Cycle:    166 Energy:      -154.657491  Gnorm:      0.036133  CPU:   10.234
  Cycle:    167 Energy:      -154.658312  Gnorm:      0.054606  CPU:   10.284
  Cycle:    168 Energy:      -154.658823  Gnorm:      0.041611  CPU:   10.325
  Cycle:    169 Energy:      -154.659374  Gnorm:      0.030147  CPU:   10.376
  Cycle:    170 Energy:      -154.659673  Gnorm:      0.018610  CPU:   10.416
  Cycle:    171 Energy:      -154.659884  Gnorm:      0.030425  CPU:   10.457
  ** Hessian calculated **
  Cycle:    172 Energy:      -154.660097  Gnorm:      0.017125  CPU:   10.535
  Cycle:    173 Energy:      -154.660337  Gnorm:      0.026053  CPU:   10.585
  Cycle:    174 Energy:      -154.660734  Gnorm:      0.036079  CPU:   10.635
  Cycle:    175 Energy:      -154.661103  Gnorm:      0.044384  CPU:   10.676
  Cycle:    176 Energy:      -154.661770  Gnorm:      0.034656  CPU:   10.726
  Cycle:    177 Energy:      -154.662402  Gnorm:      0.042683  CPU:   10.777
  Cycle:    178 Energy:      -154.663058  Gnorm:      0.045555  CPU:   10.827
  Cycle:    179 Energy:      -154.663977  Gnorm:      0.048296  CPU:   10.877
  Cycle:    180 Energy:      -154.665761  Gnorm:      0.071485  CPU:   10.928
  Cycle:    181 Energy:      -154.668490  Gnorm:      0.114293  CPU:   10.979
  ** Hessian calculated **
  Cycle:    182 Energy:      -154.671093  Gnorm:      0.074718  CPU:   11.056
  Cycle:    183 Energy:      -154.672942  Gnorm:      0.056563  CPU:   11.107
  Cycle:    184 Energy:      -154.673865  Gnorm:      0.057503  CPU:   11.147
  Cycle:    185 Energy:      -154.674933  Gnorm:      0.060273  CPU:   11.198
  Cycle:    186 Energy:      -154.676156  Gnorm:      0.055673  CPU:   11.248
  Cycle:    187 Energy:      -154.677283  Gnorm:      0.065120  CPU:   11.289
  Cycle:    188 Energy:      -154.678649  Gnorm:      0.052999  CPU:   11.339
  Cycle:    189 Energy:      -154.679705  Gnorm:      0.042649  CPU:   11.390
  Cycle:    190 Energy:      -154.680405  Gnorm:      0.026198  CPU:   11.430
  Cycle:    191 Energy:      -154.681057  Gnorm:      0.053040  CPU:   11.471
  ** Hessian calculated **
  Cycle:    192 Energy:      -154.681641  Gnorm:      0.026079  CPU:   11.548
  Cycle:    193 Energy:      -154.682218  Gnorm:      0.038060  CPU:   11.599
  Cycle:    194 Energy:      -154.683299  Gnorm:      0.067966  CPU:   11.649
  Cycle:    195 Energy:      -154.684002  Gnorm:      0.054803  CPU:   11.690
  Cycle:    196 Energy:      -154.685138  Gnorm:      0.037531  CPU:   11.740
  Cycle:    197 Energy:      -154.686298  Gnorm:      0.058109  CPU:   11.791
  Cycle:    198 Energy:      -154.687711  Gnorm:      0.066016  CPU:   11.841
  Cycle:    199 Energy:      -154.689217  Gnorm:      0.066740  CPU:   11.892
  Cycle:    200 Energy:      -154.693160  Gnorm:      0.107471  CPU:   11.942
  Cycle:    201 Energy:      -154.700969  Gnorm:      0.188701  CPU:   11.993
  ** Hessian calculated **
  Cycle:    202 Energy:      -154.709091  Gnorm:      0.119369  CPU:   12.070
  Cycle:    203 Energy:      -154.713718  Gnorm:      0.069795  CPU:   12.121
  Cycle:    204 Energy:      -154.715752  Gnorm:      0.073092  CPU:   12.162
  Cycle:    205 Energy:      -154.717522  Gnorm:      0.081370  CPU:   12.212
  Cycle:    206 Energy:      -154.719392  Gnorm:      0.060151  CPU:   12.263
  Cycle:    207 Energy:      -154.721634  Gnorm:      0.101665  CPU:   12.313
  Cycle:    208 Energy:      -154.724222  Gnorm:      0.090572  CPU:   12.364
  Cycle:    209 Energy:      -154.727391  Gnorm:      0.071194  CPU:   12.414
  Cycle:    210 Energy:      -154.729206  Gnorm:      0.042742  CPU:   12.455
  Cycle:    211 Energy:      -154.730525  Gnorm:      0.078761  CPU:   12.496
  ** Hessian calculated **
  Cycle:    212 Energy:      -154.731726  Gnorm:      0.041066  CPU:   12.573
  Cycle:    213 Energy:      -154.733330  Gnorm:      0.069049  CPU:   12.623
  Cycle:    214 Energy:      -154.735853  Gnorm:      0.079056  CPU:   12.674
  Cycle:    215 Energy:      -154.737722  Gnorm:      0.091123  CPU:   12.714
  Cycle:    216 Energy:      -154.739837  Gnorm:      0.055113  CPU:   12.765
  Cycle:    217 Energy:      -154.741796  Gnorm:      0.089391  CPU:   12.816
  Cycle:    218 Energy:      -154.744165  Gnorm:      0.087483  CPU:   12.867
  Cycle:    219 Energy:      -154.748343  Gnorm:      0.090486  CPU:   12.917
  Cycle:    220 Energy:      -154.758861  Gnorm:      0.164853  CPU:   12.968
  Cycle:    221 Energy:      -154.779864  Gnorm:      0.308714  CPU:   13.019
  ** Hessian calculated **
  Cycle:    222 Energy:      -154.800034  Gnorm:      0.176609  CPU:   13.097
  Cycle:    223 Energy:      -154.811399  Gnorm:      0.128766  CPU:   13.148
  Cycle:    224 Energy:      -154.816074  Gnorm:      0.114106  CPU:   13.189
  Cycle:    225 Energy:      -154.820952  Gnorm:      0.113398  CPU:   13.240
  Cycle:    226 Energy:      -154.826165  Gnorm:      0.093286  CPU:   13.290
  Cycle:    227 Energy:      -154.834518  Gnorm:      0.143725  CPU:   13.341
  Cycle:    228 Energy:      -154.842170  Gnorm:      0.128530  CPU:   13.382
  Cycle:    229 Energy:      -154.848297  Gnorm:      0.103541  CPU:   13.423
  Cycle:    230 Energy:      -154.851284  Gnorm:      0.071539  CPU:   13.464
  Cycle:    231 Energy:      -154.855573  Gnorm:      0.149822  CPU:   13.514
  ** Hessian calculated **
  Cycle:    232 Energy:      -154.859093  Gnorm:      0.072957  CPU:   13.592
  Cycle:    233 Energy:      -154.861865  Gnorm:      0.098177  CPU:   13.642
  Cycle:    234 Energy:      -154.866228  Gnorm:      0.115630  CPU:   13.693
  Cycle:    235 Energy:      -154.872691  Gnorm:      0.131685  CPU:   13.744
  Cycle:    236 Energy:      -154.879234  Gnorm:      0.138987  CPU:   13.795
  Cycle:    237 Energy:      -154.883854  Gnorm:      0.123475  CPU:   13.836
  Cycle:    238 Energy:      -154.891891  Gnorm:      0.129155  CPU:   13.886
  Cycle:    239 Energy:      -154.903318  Gnorm:      0.145822  CPU:   13.938
  Cycle:    240 Energy:      -154.928460  Gnorm:      0.238851  CPU:   13.989
  Cycle:    241 Energy:      -154.975094  Gnorm:      0.420167  CPU:   14.040
  ** Hessian calculated **
  Cycle:    242 Energy:      -155.018449  Gnorm:      0.273102  CPU:   14.120
  Cycle:    243 Energy:      -155.042723  Gnorm:      0.213836  CPU:   14.172
  Cycle:    244 Energy:      -155.055073  Gnorm:      0.170573  CPU:   14.213
  Cycle:    245 Energy:      -155.070043  Gnorm:      0.200847  CPU:   14.264
  Cycle:    246 Energy:      -155.085861  Gnorm:      0.195454  CPU:   14.315
  Cycle:    247 Energy:      -155.113861  Gnorm:      0.257292  CPU:   14.366
  Cycle:    248 Energy:      -155.135967  Gnorm:      0.207574  CPU:   14.407
  Cycle:    249 Energy:      -155.147101  Gnorm:      0.168214  CPU:   14.449
  Cycle:    250 Energy:      -155.156068  Gnorm:      0.117714  CPU:   14.500
  Cycle:    251 Energy:      -155.165130  Gnorm:      0.158305  CPU:   14.551
  ** Hessian calculated **
  Cycle:    252 Energy:      -155.172690  Gnorm:      0.113497  CPU:   14.630
  Cycle:    253 Energy:      -155.180449  Gnorm:      0.145942  CPU:   14.682
  Cycle:    254 Energy:      -155.190235  Gnorm:      0.217917  CPU:   14.733
  Cycle:    255 Energy:      -155.207179  Gnorm:      0.251226  CPU:   14.784
  Cycle:    256 Energy:      -155.234967  Gnorm:      0.269814  CPU:   14.836
  Cycle:    257 Energy:      -155.254042  Gnorm:      0.242647  CPU:   14.878
  Cycle:    258 Energy:      -155.281198  Gnorm:      0.256780  CPU:   14.930
  Cycle:    259 Energy:      -155.315636  Gnorm:      0.267274  CPU:   14.981
  Cycle:    260 Energy:      -155.381261  Gnorm:      0.362014  CPU:   15.033
  Cycle:    261 Energy:      -155.487336  Gnorm:      0.546125  CPU:   15.085
  ** Hessian calculated **
  Cycle:    262 Energy:      -155.952041  Gnorm:      0.530588  CPU:   15.186
  Cycle:    263 Energy:      -156.120793  Gnorm:      0.180926  CPU:   15.228
  ** Hessian calculated **
  Cycle:    264 Energy:      -156.143665  Gnorm:      0.016197  CPU:   15.324
  Cycle:    265 Energy:      -156.143781  Gnorm:      0.002124  CPU:   15.367


  **** Optimisation achieved ****


  Final energy =    -156.14378437 eV      
  Final Gnorm  =       0.00027851

  Components of energy : 

--------------------------------------------------------------------------------
  Interatomic potentials     =          12.60840928 eV    
  Monopole - monopole (real) =         -70.30981520 eV    
  Monopole - monopole (recip)=         -98.44237846 eV    
  Monopole - monopole (total)=        -168.75219365 eV    
--------------------------------------------------------------------------------
  Total lattice energy       =        -156.14378437 eV    
--------------------------------------------------------------------------------
  Total lattice energy       =          -15065.4883 kJ/(mole unit cells)
--------------------------------------------------------------------------------

  Final fractional coordinates of atoms :

--------------------------------------------------------------------------------
   No.  Atomic        x           y          z          Radius
        Label       (Frac)      (Frac)     (Frac)       (Angs) 
--------------------------------------------------------------------------------
     1  Ti    c     0.118289    0.060062    0.247159    0.000000
     2  Ti    c     0.530227    0.372943    0.649681    0.000000
     3  Ti    c     0.533740    0.105277    0.651265    0.000000
     4  Ti    c     0.894190    0.709717    0.174235    0.000000
     5  O     c     0.147607    0.246152    0.245953    0.000000
     6  O     c     0.820880    0.574108    0.485906    0.000000
     7  O     c     0.467093    0.141891    0.982280    0.000000
     8  O     c     0.359053    0.339640    0.592284    0.000000
     9  O     c     0.167280    0.290973    0.912409    0.000000
    10  O     c     0.595163    0.117978    0.384912    0.000000
    11  O     c     0.889763    0.143688    0.818141    0.000000
    12  O     c     0.666279    0.811720    0.642882    0.000000
--------------------------------------------------------------------------------

  Final Cartesian lattice vectors (Angstroms) :

       11.138552   -3.728098   -1.160939
       -2.142316    8.122594   -7.218744
       -1.227623   -4.928246    3.807174


  Final cell parameters and derivatives :

--------------------------------------------------------------------------------
       a           11.803128 Angstrom     dE/de1(xx)     0.000804 eV/strain
       b           11.075934 Angstrom     dE/de2(yy)     0.000108 eV/strain
       c            6.347380 Angstrom     dE/de3(zz)     0.001518 eV/strain
       alpha      157.354647 Degrees      dE/de4(yz)     0.000049 eV/strain
       beta        89.786522 Degrees      dE/de5(xz)    -0.000308 eV/strain
       gamma      110.490995 Degrees      dE/de6(xy)     0.000363 eV/strain
--------------------------------------------------------------------------------

  Primitive cell volume =           139.090616 Angs**3

  Density of cell =      3.814663 g/cm**3

  Non-primitive cell volume =           139.090616 Angs**3


  Final internal derivatives :

--------------------------------------------------------------------------------
   No.  Atomic          a             b             c           Radius
        Label          (eV)          (eV)          (eV)        (eV/Angs)
--------------------------------------------------------------------------------
      1 Ti    c       0.000000      0.000000      0.000000      0.000000
      2 Ti    c       0.000171     -0.001304      0.000963      0.000000
      3 Ti    c       0.003700     -0.001383      0.000248      0.000000
      4 Ti    c       0.000940     -0.002823      0.001389      0.000000
      5 O     c      -0.001703      0.001489     -0.000827      0.000000
      6 O     c      -0.005549      0.003769     -0.001110      0.000000
      7 O     c       0.000243     -0.000305      0.000131      0.000000
      8 O     c      -0.001117      0.001289     -0.000808      0.000000
      9 O     c       0.001754      0.000414     -0.000397      0.000000
     10 O     c       0.003139     -0.000313     -0.000556      0.000000
     11 O     c       0.003211      0.000318     -0.000835      0.000000
     12 O     c      -0.001969     -0.000495      0.001011      0.000000
--------------------------------------------------------------------------------
  Maximum abs         0.005549      0.003769      0.001389      0.000000
--------------------------------------------------------------------------------


  Time to end of optimisation =      15.4087 seconds


  Peak dynamic memory used =       1.84 MB 


  Timing analysis for GULP :

--------------------------------------------------------------------------------
  Task / Subroutine                                          Time (Seconds)
--------------------------------------------------------------------------------
  Calculation of reciprocal space energy and derivatives          0.3437
  Calculation of real space energy and derivatives               14.9946
  Calculation and manipulation of Hessian matrix                  0.0030
  Calculation of matrix inversion                                 0.0058
  Global summation overhead                                       0.0017
--------------------------------------------------------------------------------
  Total CPU time                                                 15.4087
--------------------------------------------------------------------------------


  Job Finished at 11:18.17 29th May        2024                               

