********************************************************************************
*                       GENERAL UTILITY LATTICE PROGRAM                        *
*                                 Julian Gale                                  *
*                       Curtin Institute for Computation                       *
*                    School of Molecular and Life Sciences                     *
*                    Curtin University, Western Australia                      *
********************************************************************************
* Version = 6.0.0 * Last modified =  12th July 2021                            *
********************************************************************************
*  optimise     - perform optimisation run                                     *
*  conp         - constant pressure calculation                                *
*  conjugate    - use conjugate gradients minimiser                            *
********************************************************************************

  Job Started  at 11:18.17 29th May        2024                               

  Number of CPUs =     1


  Total number of configurations input =      1

********************************************************************************
*  Input for Configuration =   1                                               *
********************************************************************************

  Formula = Ti4O8                                                       

  Number of irreducible atoms/shells =      12


  Total number atoms/shells =      12

  Dimensionality = 3               :  Bulk   



  Cartesian lattice vectors (Angstroms) :

        5.060232    0.719942   -0.255016
       -0.741544    5.040243   -0.485111
        0.182912    0.516641    5.088113

  Cell parameters (Angstroms/Degrees):

  a =       5.1175    alpha =  89.9999
  b =       5.1175    beta  =  90.0000
  c =       5.1175    gamma =  90.0000

  Initial cell volume =         134.024851 Angs**3

  Temperature of configuration =   0.00     K 

  Pressure of configuration =         0.000 GPa 

  Fractional coordinates of asymmetric unit :

--------------------------------------------------------------------------------
   No.  Atomic       x           y          z         Charge      Occupancy
        Label      (Frac)      (Frac)     (Frac)        (e)         (Frac)  
--------------------------------------------------------------------------------
      1 Ti    c    0.341806    0.384863    0.730180     2.19600    1.000000    
      2 Ti    c    0.813034 *  0.856090 *  0.730179 *   2.19600    1.000000    
      3 Ti    c    0.023682 *  0.231757 *  0.577078 *   2.19600    1.000000    
      4 Ti    c    0.659928 *  0.537969 *  0.883286 *   2.19600    1.000000    
      5 O     c    0.023686 *  0.702984 *  0.412059 *  -1.09800    1.000000    
      6 O     c    0.188703 *  0.231759 *  0.105850 *  -1.09800    1.000000    
      7 O     c    0.494911 *  0.066741 *  0.577074 *  -1.09800    1.000000    
      8 O     c    0.341808 *  0.856090 *  0.258952 *  -1.09800    1.000000    
      9 O     c    0.188701 *  0.702986 *  0.883286 *  -1.09800    1.000000    
     10 O     c    0.494914 *  0.537969 *  0.412059 *  -1.09800    1.000000    
     11 O     c    0.659931 *  0.066740 *  0.105846 *  -1.09800    1.000000    
     12 O     c    0.813035 *  0.384862 *  0.258953 *  -1.09800    1.000000    
--------------------------------------------------------------------------------



********************************************************************************
*  General input information                                                   *
********************************************************************************

  Species output for all configurations : 

--------------------------------------------------------------------------------
  Species    Type    Atomic    Atomic    Charge       Radii (Angs)     Library
                     Number     Mass       (e)     Cova   Ionic  VDW   Symbol
--------------------------------------------------------------------------------
    Ti       Core       22      47.88   2.196000   1.470  0.000  2.190          
    O        Core        8      16.00  -1.098000   0.730  0.000  1.360          
--------------------------------------------------------------------------------


  Lattice summation method               =    Ewald          (3-D)
                                         =    Parry          (2-D)
                                         =    Saunders et al (1-D)
  Accuracy factor for lattice sums       =   12.000


  Analytic derivatives to be used

  Time limit = Infinity

  Maximum range for interatomic potentials =    100000.000000 Angstroms

  General interatomic potentials :

--------------------------------------------------------------------------------
Atom  Types   Potential      Parameter       Value         Units   Cutoffs(Ang)
  1     2                                                            Min /  Max 
--------------------------------------------------------------------------------
Ti   c Ti   c Buckingham    Buckingham A     31120.100    eV        0.000 15.000
                            Buckingham rho  0.15400000    Ang       
                            Buckingham C     5.2500000    eV*Ang^6  
--------------------------------------------------------------------------------
O    c O    c Buckingham    Buckingham A     11782.700    eV        0.000 15.000
                            Buckingham rho  0.23400000    Ang       
                            Buckingham C     30.220000    eV*Ang^6  
--------------------------------------------------------------------------------
O    c Ti   c Buckingham    Buckingham A     16957.500    eV        0.000 15.000
                            Buckingham rho  0.19400000    Ang       
                            Buckingham C     12.590000    eV*Ang^6  
--------------------------------------------------------------------------------
Ti   c Ti   c Lennard       Lennard-Jones A  1.0000000    eV*Ang^m  0.000 15.000
                            Lennard-Jones B  0.0000000    eV*Ang^n  
                            Exponent m        12          None
                            Exponent n         6          None
--------------------------------------------------------------------------------
O    c O    c Lennard       Lennard-Jones A  1.0000000    eV*Ang^m  0.000 15.000
                            Lennard-Jones B  0.0000000    eV*Ang^n  
                            Exponent m        12          None
                            Exponent n         6          None
--------------------------------------------------------------------------------
O    c Ti   c Lennard       Lennard-Jones A  1.0000000    eV*Ang^m  0.000 15.000
                            Lennard-Jones B  0.0000000    eV*Ang^n  
                            Exponent m        12          None
                            Exponent n         6          None
--------------------------------------------------------------------------------

********************************************************************************
*  Output for configuration   1                                                *
********************************************************************************


  Components of energy : 

--------------------------------------------------------------------------------
  Interatomic potentials     =          14.80875370 eV    
  Monopole - monopole (real) =          -0.22087168 eV    
  Monopole - monopole (recip)=         -84.32291963 eV    
  Monopole - monopole (total)=         -84.54379131 eV    
--------------------------------------------------------------------------------
  Total lattice energy       =         -69.73503761 eV    
--------------------------------------------------------------------------------
  Total lattice energy       =           -6728.3651 kJ/(mole unit cells)
--------------------------------------------------------------------------------


  Number of variables =       39

  Maximum number of calculations  =          1000
  Maximum Hessian update interval =            10
  Maximum step size               =   1.000000000
  Maximum parameter tolerance     =   0.000010000
  Maximum function  tolerance     =   0.000010000
  Maximum gradient  tolerance     =   0.001000000
  Maximum gradient  component     =   0.010000000

  Symmetry not applied to optimisation

  Cell parameters to be optimised using strains

  Conjugate gradient optimiser to be used

  Lower half triangular hessian to be used

  Minimiser to switch to BFGS with exact hessian
  When gradient norm is less than     0.500000

  Start of bulk optimisation :

  Cycle:      0 Energy:       -69.735038  Gnorm:      7.777990  CPU:    0.021
  Cycle:      1 Energy:      -110.457981  Gnorm:      3.961060  CPU:    0.044
  Cycle:      2 Energy:      -120.265350  Gnorm:      4.036654  CPU:    0.070
  Cycle:      3 Energy:      -129.253579  Gnorm:      3.066723  CPU:    0.094
  Cycle:      4 Energy:      -135.478611  Gnorm:      2.444032  CPU:    0.117
  Cycle:      5 Energy:      -141.774535  Gnorm:      1.966783  CPU:    0.140
  Cycle:      6 Energy:      -143.756418  Gnorm:      1.230396  CPU:    0.157
  Cycle:      7 Energy:      -144.890924  Gnorm:      1.207096  CPU:    0.182
  Cycle:      8 Energy:      -146.379249  Gnorm:      1.259993  CPU:    0.204
  Cycle:      9 Energy:      -146.896721  Gnorm:      0.941825  CPU:    0.226
  Cycle:     10 Energy:      -147.338990  Gnorm:      0.632775  CPU:    0.249
  Cycle:     11 Energy:      -147.740616  Gnorm:      0.658872  CPU:    0.273
  Cycle:     12 Energy:      -148.491259  Gnorm:      0.918499  CPU:    0.296
  Cycle:     13 Energy:      -149.216477  Gnorm:      1.104721  CPU:    0.315
  Cycle:     14 Energy:      -149.801996  Gnorm:      0.879674  CPU:    0.334
  Cycle:     15 Energy:      -150.317150  Gnorm:      0.648928  CPU:    0.361
  Cycle:     16 Energy:      -150.605087  Gnorm:      0.408625  CPU:    0.393
  ** Hessian calculated **
  Cycle:     17 Energy:      -150.789857  Gnorm:      0.330566  CPU:    0.444
  ** Hessian calculated **
  Cycle:     18 Energy:      -150.892385  Gnorm:      0.233299  CPU:    0.489
  Cycle:     19 Energy:      -150.948706  Gnorm:      0.212458  CPU:    0.512
  Cycle:     20 Energy:      -151.065840  Gnorm:      0.258278  CPU:    0.537
  Cycle:     21 Energy:      -151.149437  Gnorm:      0.329460  CPU:    0.560
  Cycle:     22 Energy:      -151.374100  Gnorm:      0.516297  CPU:    0.594
  Cycle:     23 Energy:      -151.606921  Gnorm:      0.537302  CPU:    0.630
  Cycle:     24 Energy:      -151.787628  Gnorm:      0.368592  CPU:    0.670
  Cycle:     25 Energy:      -151.941486  Gnorm:      0.324350  CPU:    0.703
  Cycle:     26 Energy:      -152.007167  Gnorm:      0.254674  CPU:    0.740
  Cycle:     27 Energy:      -152.066638  Gnorm:      0.236021  CPU:    0.780
  ** Hessian calculated **
  Cycle:     28 Energy:      -152.141584  Gnorm:      0.185723  CPU:    0.855
  Cycle:     29 Energy:      -152.190806  Gnorm:      0.175071  CPU:    0.890
  Cycle:     30 Energy:      -152.467913  Gnorm:      0.840623  CPU:    0.936
  Cycle:     31 Energy:      -152.492255  Gnorm:      0.864492  CPU:    0.968
  Cycle:     32 Energy:      -152.544541  Gnorm:      0.788185  CPU:    1.000
  ** Hessian calculated **
  Cycle:     33 Energy:      -152.774891  Gnorm:      0.464792  CPU:    1.066
  ** Hessian calculated **
  Cycle:     34 Energy:      -153.077996  Gnorm:      0.445980  CPU:    1.123
  Cycle:     35 Energy:      -153.257647  Gnorm:      0.285607  CPU:    1.149
  Cycle:     36 Energy:      -153.379317  Gnorm:      0.308978  CPU:    1.186
  Cycle:     37 Energy:      -153.588735  Gnorm:      0.542734  CPU:    1.219
  Cycle:     38 Energy:      -154.032164  Gnorm:      0.589160  CPU:    1.258
  Cycle:     39 Energy:      -154.128653  Gnorm:      0.581252  CPU:    1.295
  Cycle:     40 Energy:      -154.471918  Gnorm:      0.398778  CPU:    1.329
  Cycle:     41 Energy:      -154.602590  Gnorm:      0.395767  CPU:    1.357
  Cycle:     42 Energy:      -154.724603  Gnorm:      0.274544  CPU:    1.397
  Cycle:     43 Energy:      -154.815366  Gnorm:      0.198826  CPU:    1.438
  ** Hessian calculated **
  Cycle:     44 Energy:      -154.852949  Gnorm:      0.117074  CPU:    1.508
  Cycle:     45 Energy:      -154.880059  Gnorm:      0.140367  CPU:    1.556
  Cycle:     46 Energy:      -154.921711  Gnorm:      0.197193  CPU:    1.600
  Cycle:     47 Energy:      -155.000521  Gnorm:      0.191595  CPU:    1.639
  Cycle:     48 Energy:      -155.074917  Gnorm:      0.223394  CPU:    1.678
  Cycle:     49 Energy:      -155.172010  Gnorm:      0.270262  CPU:    1.714
  Cycle:     50 Energy:      -155.336666  Gnorm:      0.316730  CPU:    1.751
  Cycle:     51 Energy:      -155.509854  Gnorm:      0.375918  CPU:    1.781
  Cycle:     52 Energy:      -155.798649  Gnorm:      0.514119  CPU:    1.830
  Cycle:     53 Energy:      -156.102262  Gnorm:      0.547725  CPU:    1.886
  ** Hessian calculated **
  Cycle:     54 Energy:      -156.715532  Gnorm:      0.387657  CPU:    1.982
  Cycle:     55 Energy:      -157.100794  Gnorm:      0.328565  CPU:    2.029
  Cycle:     56 Energy:      -157.266666  Gnorm:      0.185379  CPU:    2.071
  Cycle:     57 Energy:      -157.308477  Gnorm:      0.080642  CPU:    2.103
  Cycle:     58 Energy:      -157.317508  Gnorm:      0.054307  CPU:    2.134
  Cycle:     59 Energy:      -157.321144  Gnorm:      0.038914  CPU:    2.173
  Cycle:     60 Energy:      -157.323788  Gnorm:      0.019459  CPU:    2.215
  Cycle:     61 Energy:      -157.324672  Gnorm:      0.013363  CPU:    2.247
  Cycle:     62 Energy:      -157.324914  Gnorm:      0.006328  CPU:    2.278
  Cycle:     63 Energy:      -157.324985  Gnorm:      0.002855  CPU:    2.313
  ** Hessian calculated **
  Cycle:     64 Energy:      -157.324996  Gnorm:      0.000005  CPU:    2.385


  **** Optimisation achieved ****


  Final energy =    -157.32499585 eV      
  Final Gnorm  =       0.00000001

  Components of energy : 

--------------------------------------------------------------------------------
  Interatomic potentials     =          12.39595525 eV    
  Monopole - monopole (real) =         -67.90814704 eV    
  Monopole - monopole (recip)=        -101.81280407 eV    
  Monopole - monopole (total)=        -169.72095111 eV    
--------------------------------------------------------------------------------
  Total lattice energy       =        -157.32499585 eV    
--------------------------------------------------------------------------------
  Total lattice energy       =          -15179.4572 kJ/(mole unit cells)
--------------------------------------------------------------------------------

  Final fractional coordinates of atoms :

--------------------------------------------------------------------------------
   No.  Atomic        x           y          z          Radius
        Label       (Frac)      (Frac)     (Frac)       (Angs) 
--------------------------------------------------------------------------------
     1  Ti    c     0.341806    0.384863    0.730180    0.000000
     2  Ti    c     0.616814    0.834846    0.738221    0.000000
     3  Ti    c     0.106482    0.858213    0.081582    0.000000
     4  Ti    c     0.854840    0.361496    0.386818    0.000000
     5  O     c     0.065740    0.587047    0.389201    0.000000
     6  O     c     0.177153    0.109855    0.734200    0.000000
     7  O     c     0.616819    0.163960    0.500492    0.000000
     8  O     c     0.542932    0.632663    0.079199    0.000000
     9  O     c     0.052931    0.648337    0.859660    0.000000
    10  O     c     0.591413    0.571373    0.608741    0.000000
    11  O     c     0.670925    0.055749    0.967908    0.000000
    12  O     c     0.109615    0.109855    0.234200    0.000000
--------------------------------------------------------------------------------

  Final Cartesian lattice vectors (Angstroms) :

        4.552428    1.755261   -0.392427
        0.482489    5.640852    0.300419
       -0.126590    1.480058    5.151520


  Final cell parameters and derivatives :

--------------------------------------------------------------------------------
       a            4.894848 Angstrom     dE/de1(xx)    -0.000000 eV/strain
       b            5.669414 Angstrom     dE/de2(yy)     0.000000 eV/strain
       c            5.361414 Angstrom     dE/de3(zz)    -0.000000 eV/strain
       alpha       71.120907 Degrees      dE/de4(yz)     0.000000 eV/strain
       beta        90.000000 Degrees      dE/de5(xz)    -0.000000 eV/strain
       gamma       64.425200 Degrees      dE/de6(xy)    -0.000000 eV/strain
--------------------------------------------------------------------------------

  Primitive cell volume =           125.274660 Angs**3

  Density of cell =      4.235365 g/cm**3

  Non-primitive cell volume =           125.274660 Angs**3


  Final internal derivatives :

--------------------------------------------------------------------------------
   No.  Atomic          a             b             c           Radius
        Label          (eV)          (eV)          (eV)        (eV/Angs)
--------------------------------------------------------------------------------
      1 Ti    c       0.000000      0.000000      0.000000      0.000000
      2 Ti    c      -0.000000     -0.000000      0.000000      0.000000
      3 Ti    c       0.000000     -0.000000      0.000000      0.000000
      4 Ti    c       0.000000     -0.000000     -0.000000      0.000000
      5 O     c      -0.000000     -0.000000     -0.000000      0.000000
      6 O     c       0.000000      0.000000      0.000000      0.000000
      7 O     c       0.000000      0.000000      0.000000      0.000000
      8 O     c      -0.000000      0.000000     -0.000000      0.000000
      9 O     c      -0.000000     -0.000000     -0.000000      0.000000
     10 O     c       0.000000      0.000000      0.000000      0.000000
     11 O     c      -0.000000      0.000000     -0.000000      0.000000
     12 O     c      -0.000000      0.000000     -0.000000      0.000000
--------------------------------------------------------------------------------
  Maximum abs         0.000000      0.000000      0.000000      0.000000
--------------------------------------------------------------------------------


  Time to end of optimisation =       2.4204 seconds


  Peak dynamic memory used =       1.84 MB 


  Timing analysis for GULP :

--------------------------------------------------------------------------------
  Task / Subroutine                                          Time (Seconds)
--------------------------------------------------------------------------------
  Calculation of reciprocal space energy and derivatives          0.0982
  Calculation of real space energy and derivatives                2.2975
  Calculation and manipulation of Hessian matrix                  0.0009
  Calculation of matrix inversion                                 0.0015
  Global summation overhead                                       0.0004
--------------------------------------------------------------------------------
  Total CPU time                                                  2.4204
--------------------------------------------------------------------------------


  Job Finished at 11:18.20 29th May        2024                               

