********************************************************************************
*                       GENERAL UTILITY LATTICE PROGRAM                        *
*                                 Julian Gale                                  *
*                       Curtin Institute for Computation                       *
*                    School of Molecular and Life Sciences                     *
*                    Curtin University, Western Australia                      *
********************************************************************************
* Version = 6.0.0 * Last modified =  12th July 2021                            *
********************************************************************************
*  optimise     - perform optimisation run                                     *
*  conp         - constant pressure calculation                                *
*  conjugate    - use conjugate gradients minimiser                            *
********************************************************************************

  Job Started  at 11:18.20 29th May        2024                               

  Number of CPUs =     1


  Total number of configurations input =      1

********************************************************************************
*  Input for Configuration =   1                                               *
********************************************************************************

  Formula = Ti4O8                                                       

  Number of irreducible atoms/shells =      12


  Total number atoms/shells =      12

  Dimensionality = 3               :  Bulk   



  Cartesian lattice vectors (Angstroms) :

        3.882450   -6.486024  -10.864313
       -7.395227   11.429992    4.173625
       -0.918825    4.260545   13.936415

  Cell parameters (Angstroms/Degrees):

  a =      13.2354    alpha =  56.8630
  b =      14.2391    beta  = 160.8877
  c =      14.6021    gamma = 141.8430

  Initial cell volume =         134.024851 Angs**3

  Temperature of configuration =   0.00     K 

  Pressure of configuration =         0.000 GPa 

  Fractional coordinates of asymmetric unit :

--------------------------------------------------------------------------------
   No.  Atomic       x           y          z         Charge      Occupancy
        Label      (Frac)      (Frac)     (Frac)        (e)         (Frac)  
--------------------------------------------------------------------------------
      1 Ti    c    0.053499    0.238387    0.251034     2.19600    1.000000    
      2 Ti    c    0.290551 *  0.040847 *  0.013982 *   2.19600    1.000000    
      3 Ti    c    0.290550 *  0.198881 *  0.013983 *   2.19600    1.000000    
      4 Ti    c    0.053498 *  0.080352 *  0.251032 *   2.19600    1.000000    
      5 O     c    0.224789 *  0.073723 *  0.079737 *  -1.09800    1.000000    
      6 O     c    0.119258 *  0.205510 *  0.185277 *  -1.09800    1.000000    
      7 O     c    0.119258 *  0.047477 *  0.185275 *  -1.09800    1.000000    
      8 O     c    0.224793 *  0.231758 *  0.079745 *  -1.09800    1.000000    
      9 O     c    0.303811 *  0.271269 *  0.000730 *  -1.09800    1.000000    
     10 O     c    0.040237 *  0.165999 *  0.264290 *  -1.09800    1.000000    
     11 O     c    0.040236 *  0.007966 *  0.264290 *  -1.09800    1.000000    
     12 O     c    0.303808 *  0.113235 *  0.000723 *  -1.09800    1.000000    
--------------------------------------------------------------------------------



********************************************************************************
*  General input information                                                   *
********************************************************************************

  Species output for all configurations : 

--------------------------------------------------------------------------------
  Species    Type    Atomic    Atomic    Charge       Radii (Angs)     Library
                     Number     Mass       (e)     Cova   Ionic  VDW   Symbol
--------------------------------------------------------------------------------
    Ti       Core       22      47.88   2.196000   1.470  0.000  2.190          
    O        Core        8      16.00  -1.098000   0.730  0.000  1.360          
--------------------------------------------------------------------------------


  Lattice summation method               =    Ewald          (3-D)
                                         =    Parry          (2-D)
                                         =    Saunders et al (1-D)
  Accuracy factor for lattice sums       =   12.000


  Analytic derivatives to be used

  Time limit = Infinity

  Maximum range for interatomic potentials =    100000.000000 Angstroms

  General interatomic potentials :

--------------------------------------------------------------------------------
Atom  Types   Potential      Parameter       Value         Units   Cutoffs(Ang)
  1     2                                                            Min /  Max 
--------------------------------------------------------------------------------
Ti   c Ti   c Buckingham    Buckingham A     31120.100    eV        0.000 15.000
                            Buckingham rho  0.15400000    Ang       
                            Buckingham C     5.2500000    eV*Ang^6  
--------------------------------------------------------------------------------
O    c O    c Buckingham    Buckingham A     11782.700    eV        0.000 15.000
                            Buckingham rho  0.23400000    Ang       
                            Buckingham C     30.220000    eV*Ang^6  
--------------------------------------------------------------------------------
O    c Ti   c Buckingham    Buckingham A     16957.500    eV        0.000 15.000
                            Buckingham rho  0.19400000    Ang       
                            Buckingham C     12.590000    eV*Ang^6  
--------------------------------------------------------------------------------
Ti   c Ti   c Lennard       Lennard-Jones A  1.0000000    eV*Ang^m  0.000 15.000
                            Lennard-Jones B  0.0000000    eV*Ang^n  
                            Exponent m        12          None
                            Exponent n         6          None
--------------------------------------------------------------------------------
O    c O    c Lennard       Lennard-Jones A  1.0000000    eV*Ang^m  0.000 15.000
                            Lennard-Jones B  0.0000000    eV*Ang^n  
                            Exponent m        12          None
                            Exponent n         6          None
--------------------------------------------------------------------------------
O    c Ti   c Lennard       Lennard-Jones A  1.0000000    eV*Ang^m  0.000 15.000
                            Lennard-Jones B  0.0000000    eV*Ang^n  
                            Exponent m        12          None
                            Exponent n         6          None
--------------------------------------------------------------------------------

********************************************************************************
*  Output for configuration   1                                                *
********************************************************************************


  Components of energy : 

--------------------------------------------------------------------------------
  Interatomic potentials     =         867.12032573 eV    
  Monopole - monopole (real) =        -108.64409503 eV    
  Monopole - monopole (recip)=         -30.38120304 eV    
  Monopole - monopole (total)=        -139.02529807 eV    
--------------------------------------------------------------------------------
  Total lattice energy       =         728.09502767 eV    
--------------------------------------------------------------------------------
  Total lattice energy       =           70250.0402 kJ/(mole unit cells)
--------------------------------------------------------------------------------


  Number of variables =       39

  Maximum number of calculations  =          1000
  Maximum Hessian update interval =            10
  Maximum step size               =   1.000000000
  Maximum parameter tolerance     =   0.000010000
  Maximum function  tolerance     =   0.000010000
  Maximum gradient  tolerance     =   0.001000000
  Maximum gradient  component     =   0.010000000

  Symmetry not applied to optimisation

  Cell parameters to be optimised using strains

  Conjugate gradient optimiser to be used

  Lower half triangular hessian to be used

  Minimiser to switch to BFGS with exact hessian
  When gradient norm is less than     0.500000

  Start of bulk optimisation :

  Cycle:      0 Energy:       728.095028  Gnorm:   1010.815141  CPU:    0.105
  Cycle:      1 Energy:       433.502977  Gnorm:    524.996743  CPU:    0.523
  Cycle:      2 Energy:       264.049889  Gnorm:    177.317236  CPU:    0.802
  Cycle:      3 Energy:       197.503554  Gnorm:    215.133724  CPU:    1.127
  Cycle:      4 Energy:       136.362561  Gnorm:     95.776170  CPU:    1.360
  Cycle:      5 Energy:       109.962552  Gnorm:    111.309690  CPU:    1.638
  Cycle:      6 Energy:        56.444470  Gnorm:     82.794361  CPU:    1.960
  Cycle:      7 Energy:       -15.502187  Gnorm:     51.539722  CPU:    2.366
  Cycle:      8 Energy:       -64.384260  Gnorm:     34.961727  CPU:    2.633
  Cycle:      9 Energy:       -93.502517  Gnorm:     20.582009  CPU:    2.937
  Cycle:     10 Energy:      -101.362847  Gnorm:     16.442668  CPU:    3.155
  Cycle:     11 Energy:      -109.900472  Gnorm:     14.925425  CPU:    3.415
  Cycle:     12 Energy:      -117.171776  Gnorm:     11.315208  CPU:    3.629
  Cycle:     13 Energy:      -122.385882  Gnorm:     13.966699  CPU:    3.843
  Cycle:     14 Energy:      -126.991406  Gnorm:      6.938638  CPU:    4.096
  Cycle:     15 Energy:      -129.429291  Gnorm:      5.507821  CPU:    4.307
  Cycle:     16 Energy:      -131.566533  Gnorm:      6.855525  CPU:    4.515
  Cycle:     17 Energy:      -133.340758  Gnorm:      5.710903  CPU:    4.681
  Cycle:     18 Energy:      -136.015644  Gnorm:      6.102789  CPU:    4.888
  Cycle:     19 Energy:      -137.425010  Gnorm:      6.434561  CPU:    5.054
  Cycle:     20 Energy:      -138.098047  Gnorm:      4.077684  CPU:    5.220
  Cycle:     21 Energy:      -138.727177  Gnorm:      2.316458  CPU:    5.427
  Cycle:     22 Energy:      -139.322864  Gnorm:      2.346306  CPU:    5.673
  Cycle:     23 Energy:      -139.767479  Gnorm:      2.552541  CPU:    5.838
  Cycle:     24 Energy:      -140.276781  Gnorm:      4.173416  CPU:    6.043
  Cycle:     25 Energy:      -140.722477  Gnorm:      2.795430  CPU:    6.208
  Cycle:     26 Energy:      -141.083761  Gnorm:      2.971965  CPU:    6.412
  Cycle:     27 Energy:      -141.379812  Gnorm:      2.630778  CPU:    6.575
  Cycle:     28 Energy:      -141.884006  Gnorm:      3.105977  CPU:    6.778
  Cycle:     29 Energy:      -142.374980  Gnorm:      2.722591  CPU:    6.942
  Cycle:     30 Energy:      -142.617247  Gnorm:      1.680759  CPU:    7.107
  Cycle:     31 Energy:      -142.713751  Gnorm:      1.274335  CPU:    7.312
  Cycle:     32 Energy:      -142.761532  Gnorm:      1.180603  CPU:    7.476
  Cycle:     33 Energy:      -142.964202  Gnorm:      2.651686  CPU:    7.681
  Cycle:     34 Energy:      -143.921562  Gnorm:      3.659635  CPU:    7.888
  Cycle:     35 Energy:      -144.293727  Gnorm:      2.217414  CPU:    8.096
  Cycle:     36 Energy:      -144.580746  Gnorm:      2.054752  CPU:    8.305
  Cycle:     37 Energy:      -144.771644  Gnorm:      1.682135  CPU:    8.473
  Cycle:     38 Energy:      -144.936370  Gnorm:      2.113537  CPU:    8.682
  Cycle:     39 Energy:      -145.114632  Gnorm:      1.027223  CPU:    8.851
  Cycle:     40 Energy:      -145.192719  Gnorm:      1.119950  CPU:    9.061
  Cycle:     41 Energy:      -145.251710  Gnorm:      1.074158  CPU:    9.231
  Cycle:     42 Energy:      -145.399230  Gnorm:      1.754617  CPU:    9.442
  Cycle:     43 Energy:      -145.571204  Gnorm:      1.445646  CPU:    9.614
  Cycle:     44 Energy:      -145.800198  Gnorm:      2.106045  CPU:    9.828
  Cycle:     45 Energy:      -146.065869  Gnorm:      1.884926  CPU:   10.043
  Cycle:     46 Energy:      -146.399541  Gnorm:      1.714368  CPU:   10.218
  Cycle:     47 Energy:      -146.644096  Gnorm:      2.567715  CPU:   10.446
  Cycle:     48 Energy:      -147.063012  Gnorm:      2.139090  CPU:   10.675
  Cycle:     49 Energy:      -147.468801  Gnorm:      2.979926  CPU:   10.909
  Cycle:     50 Energy:      -147.668835  Gnorm:      1.133812  CPU:   11.145
  Cycle:     51 Energy:      -147.772806  Gnorm:      0.997393  CPU:   11.380
  Cycle:     52 Energy:      -147.846724  Gnorm:      1.225178  CPU:   11.615
  Cycle:     53 Energy:      -147.958600  Gnorm:      1.020941  CPU:   11.850
  Cycle:     54 Energy:      -148.109716  Gnorm:      1.608298  CPU:   12.086
  Cycle:     55 Energy:      -148.472814  Gnorm:      2.683622  CPU:   12.325
  Cycle:     56 Energy:      -148.862829  Gnorm:      2.450512  CPU:   12.519
  Cycle:     57 Energy:      -149.125702  Gnorm:      1.831645  CPU:   12.713
  Cycle:     58 Energy:      -149.449947  Gnorm:      1.546903  CPU:   12.959
  Cycle:     59 Energy:      -149.611605  Gnorm:      1.429907  CPU:   13.161
  Cycle:     60 Energy:      -149.710139  Gnorm:      0.972838  CPU:   13.363
  Cycle:     61 Energy:      -149.793537  Gnorm:      0.712447  CPU:   13.615
  Cycle:     62 Energy:      -149.833759  Gnorm:      0.891355  CPU:   13.817
  Cycle:     63 Energy:      -149.905642  Gnorm:      1.088316  CPU:   14.073
  Cycle:     64 Energy:      -150.048305  Gnorm:      1.171394  CPU:   14.335
  Cycle:     65 Energy:      -150.151482  Gnorm:      1.016947  CPU:   14.550
  Cycle:     66 Energy:      -150.256941  Gnorm:      1.256344  CPU:   14.822
  Cycle:     67 Energy:      -150.420189  Gnorm:      1.440973  CPU:   15.105
  Cycle:     68 Energy:      -150.567240  Gnorm:      1.266284  CPU:   15.347
  Cycle:     69 Energy:      -150.729826  Gnorm:      1.705311  CPU:   15.668
  Cycle:     70 Energy:      -150.838633  Gnorm:      0.845193  CPU:   15.930
  Cycle:     71 Energy:      -150.896381  Gnorm:      0.973828  CPU:   16.255
  Cycle:     72 Energy:      -150.974054  Gnorm:      0.768430  CPU:   16.581
  Cycle:     73 Energy:      -151.016726  Gnorm:      0.625874  CPU:   16.843
  Cycle:     74 Energy:      -151.069396  Gnorm:      0.855883  CPU:   17.171
  Cycle:     75 Energy:      -151.127314  Gnorm:      0.841999  CPU:   17.435
  Cycle:     76 Energy:      -151.178582  Gnorm:      0.771654  CPU:   17.699
  Cycle:     77 Energy:      -151.227185  Gnorm:      0.762590  CPU:   18.030
  Cycle:     78 Energy:      -151.300919  Gnorm:      0.923132  CPU:   18.361
  Cycle:     79 Energy:      -151.386997  Gnorm:      1.197805  CPU:   18.630
  Cycle:     80 Energy:      -151.441114  Gnorm:      0.710010  CPU:   18.901
  Cycle:     81 Energy:      -151.486369  Gnorm:      0.623466  CPU:   19.239
  Cycle:     82 Energy:      -151.528640  Gnorm:      0.664189  CPU:   19.576
  Cycle:     83 Energy:      -151.563182  Gnorm:      0.573135  CPU:   19.849
  Cycle:     84 Energy:      -151.602341  Gnorm:      0.815783  CPU:   20.191
  Cycle:     85 Energy:      -151.651168  Gnorm:      0.786055  CPU:   20.467
  Cycle:     86 Energy:      -151.705005  Gnorm:      0.754193  CPU:   20.740
  Cycle:     87 Energy:      -151.782504  Gnorm:      0.875109  CPU:   21.078
  Cycle:     88 Energy:      -151.831453  Gnorm:      0.838877  CPU:   21.342
  Cycle:     89 Energy:      -151.924715  Gnorm:      0.977818  CPU:   21.662
  Cycle:     90 Energy:      -151.967056  Gnorm:      0.699579  CPU:   21.979
  Cycle:     91 Energy:      -152.011506  Gnorm:      0.721160  CPU:   22.296
  Cycle:     92 Energy:      -152.060652  Gnorm:      0.582986  CPU:   22.610
  Cycle:     93 Energy:      -152.100795  Gnorm:      0.631940  CPU:   22.922
  Cycle:     94 Energy:      -152.129363  Gnorm:      0.652085  CPU:   23.171
  Cycle:     95 Energy:      -152.181811  Gnorm:      0.907659  CPU:   23.478
  Cycle:     96 Energy:      -152.270880  Gnorm:      0.704444  CPU:   23.776
  Cycle:     97 Energy:      -152.319851  Gnorm:      0.788692  CPU:   24.012
  Cycle:     98 Energy:      -152.383909  Gnorm:      0.928441  CPU:   24.302
  Cycle:     99 Energy:      -152.471480  Gnorm:      0.954303  CPU:   24.586
  Cycle:    100 Energy:      -152.522823  Gnorm:      0.841697  CPU:   24.813
  Cycle:    101 Energy:      -152.582029  Gnorm:      0.684962  CPU:   25.099
  Cycle:    102 Energy:      -152.622179  Gnorm:      0.610527  CPU:   25.382
  Cycle:    103 Energy:      -152.689852  Gnorm:      1.052335  CPU:   25.666
  Cycle:    104 Energy:      -152.771384  Gnorm:      0.487944  CPU:   25.895
  ** Hessian calculated **
  Cycle:    105 Energy:      -153.234775  Gnorm:      0.460871  CPU:   26.384
  ** Hessian calculated **
  Cycle:    106 Energy:      -153.265720  Gnorm:      0.435238  CPU:   26.705
  Cycle:    107 Energy:      -153.288108  Gnorm:      0.425387  CPU:   26.992
  Cycle:    108 Energy:      -153.302440  Gnorm:      0.338571  CPU:   27.222
  Cycle:    109 Energy:      -153.336892  Gnorm:      0.576927  CPU:   27.508
  Cycle:    110 Energy:      -153.367037  Gnorm:      0.425706  CPU:   27.738
  Cycle:    111 Energy:      -153.405453  Gnorm:      0.606398  CPU:   28.025
  Cycle:    112 Energy:      -153.484565  Gnorm:      0.569460  CPU:   28.311
  Cycle:    113 Energy:      -153.615815  Gnorm:      0.817498  CPU:   28.597
  Cycle:    114 Energy:      -153.893884  Gnorm:      1.062215  CPU:   28.878
  Cycle:    115 Energy:      -154.059724  Gnorm:      1.254438  CPU:   29.101
  ** Hessian calculated **
  Cycle:    116 Energy:      -154.287388  Gnorm:      1.173349  CPU:   29.407
  Cycle:    117 Energy:      -154.409884  Gnorm:      0.914440  CPU:   29.621
  Cycle:    118 Energy:      -154.516007  Gnorm:      0.831364  CPU:   29.836
  Cycle:    119 Energy:      -154.607297  Gnorm:      0.824875  CPU:   30.053
  Cycle:    120 Energy:      -154.697238  Gnorm:      0.890002  CPU:   30.329
  Cycle:    121 Energy:      -154.837167  Gnorm:      0.766969  CPU:   30.611
  Cycle:    122 Energy:      -154.975805  Gnorm:      0.619127  CPU:   30.896
  Cycle:    123 Energy:      -155.029213  Gnorm:      0.572744  CPU:   31.125
  Cycle:    124 Energy:      -155.074884  Gnorm:      0.358169  CPU:   31.411
  Cycle:    125 Energy:      -155.102724  Gnorm:      0.354052  CPU:   31.699
  ** Hessian calculated **
  Cycle:    126 Energy:      -155.112279  Gnorm:      0.246325  CPU:   32.022
  Cycle:    127 Energy:      -155.127211  Gnorm:      0.287433  CPU:   32.313
  Cycle:    128 Energy:      -155.139419  Gnorm:      0.211607  CPU:   32.546
  Cycle:    129 Energy:      -155.147060  Gnorm:      0.292447  CPU:   32.781
  Cycle:    130 Energy:      -155.156352  Gnorm:      0.207125  CPU:   33.073
  Cycle:    131 Energy:      -155.161667  Gnorm:      0.148352  CPU:   33.308
  Cycle:    132 Energy:      -155.166162  Gnorm:      0.198530  CPU:   33.602
  Cycle:    133 Energy:      -155.171989  Gnorm:      0.153576  CPU:   33.897
  Cycle:    134 Energy:      -155.180941  Gnorm:      0.230388  CPU:   34.195
  Cycle:    135 Energy:      -155.191552  Gnorm:      0.259966  CPU:   34.497
  ** Hessian calculated **
  Cycle:    136 Energy:      -155.266795  Gnorm:      0.260355  CPU:   35.074
  ** Hessian calculated **
  Cycle:    137 Energy:      -155.375906  Gnorm:      0.260714  CPU:   35.654
  ** Hessian calculated **
  Cycle:    138 Energy:      -155.515200  Gnorm:      0.260164  CPU:   36.240
  ** Hessian calculated **
  Cycle:    139 Energy:      -155.922665  Gnorm:      0.241674  CPU:   36.833
  ** Hessian calculated **
  Cycle:    140 Energy:      -155.928462  Gnorm:      0.169538  CPU:   37.183
  Cycle:    141 Energy:      -155.932904  Gnorm:      0.137589  CPU:   37.489
  Cycle:    142 Energy:      -155.935472  Gnorm:      0.145516  CPU:   37.732
  Cycle:    143 Energy:      -155.938698  Gnorm:      0.140038  CPU:   38.032
  Cycle:    144 Energy:      -155.941933  Gnorm:      0.163763  CPU:   38.272
  Cycle:    145 Energy:      -155.945193  Gnorm:      0.147048  CPU:   38.570
  Cycle:    146 Energy:      -155.948353  Gnorm:      0.148220  CPU:   38.866
  Cycle:    147 Energy:      -155.954612  Gnorm:      0.203024  CPU:   39.157
  Cycle:    148 Energy:      -155.972827  Gnorm:      0.204713  CPU:   39.442
  Cycle:    149 Energy:      -155.984450  Gnorm:      0.291088  CPU:   39.668
  ** Hessian calculated **
  Cycle:    150 Energy:      -156.129451  Gnorm:      0.260919  CPU:   40.206
  Cycle:    151 Energy:      -156.304592  Gnorm:      0.222014  CPU:   40.541
  Cycle:    152 Energy:      -156.491519  Gnorm:      0.161820  CPU:   40.874
  ** Hessian calculated **
  Cycle:    153 Energy:      -156.646723  Gnorm:      0.059041  CPU:   41.345
  Cycle:    154 Energy:      -156.670071  Gnorm:      0.030867  CPU:   41.561
  Cycle:    155 Energy:      -156.670333  Gnorm:      0.006581  CPU:   41.778
  Cycle:    156 Energy:      -156.670351  Gnorm:      0.001395  CPU:   42.048


  **** Optimisation achieved ****


  Final energy =    -156.67035114 eV      
  Final Gnorm  =       0.00043867

  Components of energy : 

--------------------------------------------------------------------------------
  Interatomic potentials     =          12.28077821 eV    
  Monopole - monopole (real) =         -66.32693387 eV    
  Monopole - monopole (recip)=        -102.62419547 eV    
  Monopole - monopole (total)=        -168.95112934 eV    
--------------------------------------------------------------------------------
  Total lattice energy       =        -156.67035114 eV    
--------------------------------------------------------------------------------
  Total lattice energy       =          -15116.2940 kJ/(mole unit cells)
--------------------------------------------------------------------------------

  Final fractional coordinates of atoms :

--------------------------------------------------------------------------------
   No.  Atomic        x           y          z          Radius
        Label       (Frac)      (Frac)     (Frac)       (Angs) 
--------------------------------------------------------------------------------
     1  Ti    c     0.053499    0.238387    0.251034    0.000000
     2  Ti    c     0.467697    0.161528    0.005586    0.000000
     3  Ti    c     0.259448    0.160979    0.035973    0.000000
     4  Ti    c     0.202675    0.220440    0.171891    0.000000
     5  O     c     0.685542    0.957147    0.534516    0.000000
     6  O     c     0.149808    0.365179    0.096116    0.000000
     7  O     c     0.353233    0.030412    0.149216    0.000000
     8  O     c     0.810344    0.353763    0.522430    0.000000
     9  O     c     0.145720    0.283756    0.908184    0.000000
    10  O     c     0.997806    0.118659    0.444176    0.000000
    11  O     c     0.723008    0.397737    0.644252    0.000000
    12  O     c     0.374936    0.068323    0.860015    0.000000
--------------------------------------------------------------------------------

  Final Cartesian lattice vectors (Angstroms) :

        5.107180   -5.054677  -12.301444
       -9.862473    8.028716    5.050924
       -1.254657    3.695998   15.644651


  Final cell parameters and derivatives :

--------------------------------------------------------------------------------
       a           14.246353 Angstrom     dE/de1(xx)    -0.001224 eV/strain
       b           13.683585 Angstrom     dE/de2(yy)     0.000568 eV/strain
       c           16.124195 Angstrom     dE/de3(zz)     0.000327 eV/strain
       alpha       56.720673 Degrees      dE/de4(yz)     0.000341 eV/strain
       beta       161.266607 Degrees      dE/de5(xz)    -0.000091 eV/strain
       gamma      141.747646 Degrees      dE/de6(xy)    -0.000253 eV/strain
--------------------------------------------------------------------------------

  Primitive cell volume =           122.766671 Angs**3

  Density of cell =      4.321889 g/cm**3

  Non-primitive cell volume =           122.766671 Angs**3


  Final internal derivatives :

--------------------------------------------------------------------------------
   No.  Atomic          a             b             c           Radius
        Label          (eV)          (eV)          (eV)        (eV/Angs)
--------------------------------------------------------------------------------
      1 Ti    c       0.000000      0.000000      0.000000      0.000000
      2 Ti    c       0.003607     -0.000274     -0.005108      0.000000
      3 Ti    c       0.005219     -0.004025     -0.005549      0.000000
      4 Ti    c       0.001148     -0.000856     -0.001099      0.000000
      5 O     c      -0.004982      0.006108      0.003979      0.000000
      6 O     c       0.003192     -0.000907     -0.004211      0.000000
      7 O     c      -0.001052      0.000384      0.001157      0.000000
      8 O     c      -0.002224      0.000535      0.002865      0.000000
      9 O     c      -0.001353      0.001548      0.001383      0.000000
     10 O     c      -0.000318     -0.004250      0.002783      0.000000
     11 O     c      -0.001032     -0.000869      0.002133      0.000000
     12 O     c      -0.002168      0.001732      0.002244      0.000000
--------------------------------------------------------------------------------
  Maximum abs         0.005219      0.006108      0.005549      0.000000
--------------------------------------------------------------------------------


  Time to end of optimisation =      42.2649 seconds


  Peak dynamic memory used =       1.84 MB 


  Timing analysis for GULP :

--------------------------------------------------------------------------------
  Task / Subroutine                                          Time (Seconds)
--------------------------------------------------------------------------------
  Calculation of reciprocal space energy and derivatives          0.1455
  Calculation of real space energy and derivatives               42.0731
  Calculation and manipulation of Hessian matrix                  0.0012
  Calculation of matrix inversion                                 0.0021
  Global summation overhead                                       0.0011
--------------------------------------------------------------------------------
  Total CPU time                                                 42.2649
--------------------------------------------------------------------------------


  Job Finished at 11:19.02 29th May        2024                               

