********************************************************************************
*                       GENERAL UTILITY LATTICE PROGRAM                        *
*                                 Julian Gale                                  *
*                       Curtin Institute for Computation                       *
*                    School of Molecular and Life Sciences                     *
*                    Curtin University, Western Australia                      *
********************************************************************************
* Version = 6.0.0 * Last modified =  12th July 2021                            *
********************************************************************************
*  optimise     - perform optimisation run                                     *
*  conp         - constant pressure calculation                                *
*  conjugate    - use conjugate gradients minimiser                            *
********************************************************************************

  Job Started  at 11:17.46 29th May        2024                               

  Number of CPUs =     1


  Total number of configurations input =      1

********************************************************************************
*  Input for Configuration =   1                                               *
********************************************************************************

  Formula = Ti4O8                                                       

  Number of irreducible atoms/shells =      12


  Total number atoms/shells =      12

  Dimensionality = 3               :  Bulk   



  Cartesian lattice vectors (Angstroms) :

        4.652726    0.540159   -0.258413
       -0.651256    5.539988   -0.146492
        0.264553    0.166282    5.110480

  Cell parameters (Angstroms/Degrees):

  a =       4.6911    alpha =  89.9995
  b =       5.5801    beta  =  89.9998
  c =       5.1200    gamma =  89.9995

  Initial cell volume =         134.024851 Angs**3

  Temperature of configuration =   0.00     K 

  Pressure of configuration =         0.000 GPa 

  Fractional coordinates of asymmetric unit :

--------------------------------------------------------------------------------
   No.  Atomic       x           y          z         Charge      Occupancy
        Label      (Frac)      (Frac)     (Frac)        (e)         (Frac)  
--------------------------------------------------------------------------------
      1 Ti    c    0.827044    0.000095    0.317596     2.19600    1.000000    
      2 Ti    c    0.562871 *  0.435225 *  0.638159 *   2.19600    1.000000    
      3 Ti    c    0.345037 *  0.168748 *  0.799590 *   2.19600    1.000000    
      4 Ti    c    0.827041 *  0.650746 *  0.799596 *   2.19600    1.000000    
      5 O     c    0.127205 *  0.435217 *  0.961016 *  -1.09800    1.000000    
      6 O     c    0.080875 *  0.697624 *  0.479018 *  -1.09800    1.000000    
      7 O     c    0.609217 *  0.697614 *  0.156160 *  -1.09800    1.000000    
      8 O     c    0.080883 *  0.917216 *  0.961019 *  -1.09800    1.000000    
      9 O     c    0.609223 *  0.917225 *  0.638177 *  -1.09800    1.000000    
     10 O     c    0.345038 *  0.482095 *  0.317590 *  -1.09800    1.000000    
     11 O     c    0.127207 *  0.215625 *  0.479017 *  -1.09800    1.000000    
     12 O     c    0.562867 *  0.215617 *  0.156170 *  -1.09800    1.000000    
--------------------------------------------------------------------------------



********************************************************************************
*  General input information                                                   *
********************************************************************************

  Species output for all configurations : 

--------------------------------------------------------------------------------
  Species    Type    Atomic    Atomic    Charge       Radii (Angs)     Library
                     Number     Mass       (e)     Cova   Ionic  VDW   Symbol
--------------------------------------------------------------------------------
    Ti       Core       22      47.88   2.196000   1.470  0.000  2.190          
    O        Core        8      16.00  -1.098000   0.730  0.000  1.360          
--------------------------------------------------------------------------------


  Lattice summation method               =    Ewald          (3-D)
                                         =    Parry          (2-D)
                                         =    Saunders et al (1-D)
  Accuracy factor for lattice sums       =   12.000


  Analytic derivatives to be used

  Time limit = Infinity

  Maximum range for interatomic potentials =    100000.000000 Angstroms

  General interatomic potentials :

--------------------------------------------------------------------------------
Atom  Types   Potential      Parameter       Value         Units   Cutoffs(Ang)
  1     2                                                            Min /  Max 
--------------------------------------------------------------------------------
Ti   c Ti   c Buckingham    Buckingham A     31120.100    eV        0.000 15.000
                            Buckingham rho  0.15400000    Ang       
                            Buckingham C     5.2500000    eV*Ang^6  
--------------------------------------------------------------------------------
O    c O    c Buckingham    Buckingham A     11782.700    eV        0.000 15.000
                            Buckingham rho  0.23400000    Ang       
                            Buckingham C     30.220000    eV*Ang^6  
--------------------------------------------------------------------------------
O    c Ti   c Buckingham    Buckingham A     16957.500    eV        0.000 15.000
                            Buckingham rho  0.19400000    Ang       
                            Buckingham C     12.590000    eV*Ang^6  
--------------------------------------------------------------------------------
Ti   c Ti   c Lennard       Lennard-Jones A  1.0000000    eV*Ang^m  0.000 15.000
                            Lennard-Jones B  0.0000000    eV*Ang^n  
                            Exponent m        12          None
                            Exponent n         6          None
--------------------------------------------------------------------------------
O    c O    c Lennard       Lennard-Jones A  1.0000000    eV*Ang^m  0.000 15.000
                            Lennard-Jones B  0.0000000    eV*Ang^n  
                            Exponent m        12          None
                            Exponent n         6          None
--------------------------------------------------------------------------------
O    c Ti   c Lennard       Lennard-Jones A  1.0000000    eV*Ang^m  0.000 15.000
                            Lennard-Jones B  0.0000000    eV*Ang^n  
                            Exponent m        12          None
                            Exponent n         6          None
--------------------------------------------------------------------------------

********************************************************************************
*  Output for configuration   1                                                *
********************************************************************************


  Components of energy : 

--------------------------------------------------------------------------------
  Interatomic potentials     =          14.55466496 eV    
  Monopole - monopole (real) =         -31.48575924 eV    
  Monopole - monopole (recip)=         -93.29279302 eV    
  Monopole - monopole (total)=        -124.77855226 eV    
--------------------------------------------------------------------------------
  Total lattice energy       =        -110.22388730 eV    
--------------------------------------------------------------------------------
  Total lattice energy       =          -10634.9202 kJ/(mole unit cells)
--------------------------------------------------------------------------------


  Number of variables =       39

  Maximum number of calculations  =          1000
  Maximum Hessian update interval =            10
  Maximum step size               =   1.000000000
  Maximum parameter tolerance     =   0.000010000
  Maximum function  tolerance     =   0.000010000
  Maximum gradient  tolerance     =   0.001000000
  Maximum gradient  component     =   0.010000000

  Symmetry not applied to optimisation

  Cell parameters to be optimised using strains

  Conjugate gradient optimiser to be used

  Lower half triangular hessian to be used

  Minimiser to switch to BFGS with exact hessian
  When gradient norm is less than     0.500000

  Start of bulk optimisation :

  Cycle:      0 Energy:      -110.223887  Gnorm:      6.912758  CPU:    0.021
  Cycle:      1 Energy:      -133.803516  Gnorm:      4.111328  CPU:    0.045
  Cycle:      2 Energy:      -138.122430  Gnorm:      1.551795  CPU:    0.065
  Cycle:      3 Energy:      -142.699798  Gnorm:      1.634401  CPU:    0.092
  Cycle:      4 Energy:      -143.993021  Gnorm:      0.986972  CPU:    0.118
  Cycle:      5 Energy:      -145.365098  Gnorm:      0.906048  CPU:    0.144
  Cycle:      6 Energy:      -146.951529  Gnorm:      1.201028  CPU:    0.173
  Cycle:      7 Energy:      -147.700699  Gnorm:      1.176297  CPU:    0.201
  Cycle:      8 Energy:      -148.733037  Gnorm:      1.014587  CPU:    0.235
  Cycle:      9 Energy:      -149.762941  Gnorm:      0.803961  CPU:    0.268
  Cycle:     10 Energy:      -150.364512  Gnorm:      0.727126  CPU:    0.302
  Cycle:     11 Energy:      -150.883225  Gnorm:      0.749844  CPU:    0.335
  Cycle:     12 Energy:      -151.417026  Gnorm:      0.685322  CPU:    0.369
  Cycle:     13 Energy:      -151.914337  Gnorm:      0.461820  CPU:    0.403
  ** Hessian calculated **
  Cycle:     14 Energy:      -152.274198  Gnorm:      0.585711  CPU:    0.483
  ** Hessian calculated **
  Cycle:     15 Energy:      -152.685118  Gnorm:      0.411126  CPU:    0.549
  Cycle:     16 Energy:      -152.935940  Gnorm:      0.430023  CPU:    0.586
  Cycle:     17 Energy:      -153.200894  Gnorm:      0.538430  CPU:    0.622
  Cycle:     18 Energy:      -153.599720  Gnorm:      0.577434  CPU:    0.659
  Cycle:     19 Energy:      -154.061139  Gnorm:      0.490456  CPU:    0.688
  Cycle:     20 Energy:      -154.497699  Gnorm:      0.428035  CPU:    0.718
  Cycle:     21 Energy:      -154.909108  Gnorm:      0.447141  CPU:    0.756
  Cycle:     22 Energy:      -155.106666  Gnorm:      0.341443  CPU:    0.787
  Cycle:     23 Energy:      -155.261672  Gnorm:      0.340630  CPU:    0.825
  Cycle:     24 Energy:      -155.440183  Gnorm:      0.293442  CPU:    0.863
  ** Hessian calculated **
  Cycle:     25 Energy:      -155.537707  Gnorm:      0.198103  CPU:    0.934
  Cycle:     26 Energy:      -155.635381  Gnorm:      0.251034  CPU:    0.973
  Cycle:     27 Energy:      -155.851398  Gnorm:      0.449816  CPU:    1.018
  Cycle:     28 Energy:      -156.181805  Gnorm:      0.521532  CPU:    1.056
  Cycle:     29 Energy:      -156.562382  Gnorm:      0.353821  CPU:    1.089
  Cycle:     30 Energy:      -156.767112  Gnorm:      0.393378  CPU:    1.121
  Cycle:     31 Energy:      -156.875348  Gnorm:      0.491234  CPU:    1.155
  Cycle:     32 Energy:      -157.165345  Gnorm:      0.317363  CPU:    1.189
  Cycle:     33 Energy:      -157.276819  Gnorm:      0.175078  CPU:    1.222
  Cycle:     34 Energy:      -157.327323  Gnorm:      0.133886  CPU:    1.263
  ** Hessian calculated **
  Cycle:     35 Energy:      -157.489821  Gnorm:      0.176564  CPU:    1.356
  Cycle:     36 Energy:      -157.566771  Gnorm:      0.191833  CPU:    1.389
  Cycle:     37 Energy:      -157.601981  Gnorm:      0.080703  CPU:    1.423
  Cycle:     38 Energy:      -157.614339  Gnorm:      0.109408  CPU:    1.464
  Cycle:     39 Energy:      -157.625820  Gnorm:      0.134597  CPU:    1.497
  ** Hessian calculated **
  Cycle:     40 Energy:      -157.646249  Gnorm:      0.077311  CPU:    1.574
  Cycle:     41 Energy:      -157.663223  Gnorm:      0.097001  CPU:    1.615
  Cycle:     42 Energy:      -157.697994  Gnorm:      0.206832  CPU:    1.656
  Cycle:     43 Energy:      -157.783578  Gnorm:      0.291041  CPU:    1.705
  Cycle:     44 Energy:      -157.825718  Gnorm:      0.299794  CPU:    1.738
  Cycle:     45 Energy:      -157.971740  Gnorm:      0.193423  CPU:    1.779
  Cycle:     46 Energy:      -158.020954  Gnorm:      0.120721  CPU:    1.813
  Cycle:     47 Energy:      -158.040158  Gnorm:      0.071355  CPU:    1.846
  Cycle:     48 Energy:      -158.050520  Gnorm:      0.065050  CPU:    1.887
  Cycle:     49 Energy:      -158.057734  Gnorm:      0.046568  CPU:    1.929
  ** Hessian calculated **
  Cycle:     50 Energy:      -158.069326  Gnorm:      0.003778  CPU:    2.013
  Cycle:     51 Energy:      -158.069360  Gnorm:      0.000332  CPU:    2.047


  **** Optimisation achieved ****


  Final energy =    -158.06936078 eV      
  Final Gnorm  =       0.00002141

  Components of energy : 

--------------------------------------------------------------------------------
  Interatomic potentials     =          11.93820942 eV    
  Monopole - monopole (real) =         -65.75557509 eV    
  Monopole - monopole (recip)=        -104.25199511 eV    
  Monopole - monopole (total)=        -170.00757020 eV    
--------------------------------------------------------------------------------
  Total lattice energy       =        -158.06936078 eV    
--------------------------------------------------------------------------------
  Total lattice energy       =          -15251.2770 kJ/(mole unit cells)
--------------------------------------------------------------------------------

  Final fractional coordinates of atoms :

--------------------------------------------------------------------------------
   No.  Atomic        x           y          z          Radius
        Label       (Frac)      (Frac)     (Frac)       (Angs) 
--------------------------------------------------------------------------------
     1  Ti    c     0.827044    0.000095    0.317596    0.000000
     2  Ti    c     0.513467    0.627249    0.504018    0.000000
     3  Ti    c     0.263467    0.127249    0.754019    0.000000
     4  Ti    c     0.077043    0.500096    0.067595    0.000000
     5  O     c     0.887039    0.399593    0.805099    0.000000
     6  O     c     0.150468    0.727751    0.694023    0.000000
     7  O     c     0.775963    0.727751    0.213511    0.000000
     8  O     c     0.190042    0.899593    0.127590    0.000000
     9  O     c     0.564548    0.899593    0.608103    0.000000
    10  O     c     0.367552    0.399593    0.430593    0.000000
    11  O     c     0.972960    0.227751    0.391020    0.000000
    12  O     c     0.453473    0.227751    0.016514    0.000000
--------------------------------------------------------------------------------

  Final Cartesian lattice vectors (Angstroms) :

        4.520485    1.543349   -0.405097
        0.574190    6.032494    1.025519
        0.039609    1.108142    4.663825


  Final cell parameters and derivatives :

--------------------------------------------------------------------------------
       a            4.793831 Angstrom     dE/de1(xx)     0.000028 eV/strain
       b            6.145922 Angstrom     dE/de2(yy)     0.000088 eV/strain
       c            4.793830 Angstrom     dE/de3(zz)    -0.000003 eV/strain
       alpha       67.045369 Degrees      dE/de4(yz)     0.000094 eV/strain
       beta        90.000000 Degrees      dE/de5(xz)    -0.000055 eV/strain
       gamma       67.045405 Degrees      dE/de6(xy)     0.000051 eV/strain
--------------------------------------------------------------------------------

  Primitive cell volume =           117.813148 Angs**3

  Density of cell =      4.503605 g/cm**3

  Non-primitive cell volume =           117.813148 Angs**3


  Final internal derivatives :

--------------------------------------------------------------------------------
   No.  Atomic          a             b             c           Radius
        Label          (eV)          (eV)          (eV)        (eV/Angs)
--------------------------------------------------------------------------------
      1 Ti    c       0.000000      0.000000      0.000000      0.000000
      2 Ti    c      -0.000073      0.000039     -0.000026      0.000000
      3 Ti    c      -0.000082      0.000037      0.000022      0.000000
      4 Ti    c      -0.000091     -0.000110     -0.000157      0.000000
      5 O     c      -0.000133     -0.000227      0.000086      0.000000
      6 O     c      -0.000013      0.000304      0.000004      0.000000
      7 O     c      -0.000171     -0.000129     -0.000159      0.000000
      8 O     c      -0.000039     -0.000257     -0.000121      0.000000
      9 O     c      -0.000097     -0.000153      0.000181      0.000000
     10 O     c       0.000232     -0.000037      0.000021      0.000000
     11 O     c      -0.000031      0.000183      0.000073      0.000000
     12 O     c       0.000257      0.000250     -0.000025      0.000000
--------------------------------------------------------------------------------
  Maximum abs         0.000257      0.000304      0.000181      0.000000
--------------------------------------------------------------------------------


  Time to end of optimisation =       2.0805 seconds


  Peak dynamic memory used =       1.84 MB 


  Timing analysis for GULP :

--------------------------------------------------------------------------------
  Task / Subroutine                                          Time (Seconds)
--------------------------------------------------------------------------------
  Calculation of reciprocal space energy and derivatives          0.0756
  Calculation of real space energy and derivatives                1.9824
  Calculation and manipulation of Hessian matrix                  0.0006
  Calculation of matrix inversion                                 0.0011
  Global summation overhead                                       0.0003
--------------------------------------------------------------------------------
  Total CPU time                                                  2.0806
--------------------------------------------------------------------------------


  Job Finished at 11:17.48 29th May        2024                               

