********************************************************************************
*                       GENERAL UTILITY LATTICE PROGRAM                        *
*                                 Julian Gale                                  *
*                       Curtin Institute for Computation                       *
*                    School of Molecular and Life Sciences                     *
*                    Curtin University, Western Australia                      *
********************************************************************************
* Version = 6.0.0 * Last modified =  12th July 2021                            *
********************************************************************************
*  optimise     - perform optimisation run                                     *
*  conp         - constant pressure calculation                                *
*  conjugate    - use conjugate gradients minimiser                            *
********************************************************************************

  Job Started  at 11:17.54 29th May        2024                               

  Number of CPUs =     1


  Total number of configurations input =      1

********************************************************************************
*  Input for Configuration =   1                                               *
********************************************************************************

  Formula = Ti4O8                                                       

  Number of irreducible atoms/shells =      12


  Total number atoms/shells =      12

  Dimensionality = 3               :  Bulk   



  Cartesian lattice vectors (Angstroms) :

        2.201694   -2.166454   -0.005524
       -1.739540   11.550487   -2.273778
        0.537008   -1.915672    6.506963

  Cell parameters (Angstroms/Degrees):

  a =       3.0889    alpha = 117.8740
  b =      11.9000    beta  =  75.4036
  c =       6.8043    gamma = 141.6867

  Initial cell volume =         134.024851 Angs**3

  Temperature of configuration =   0.00     K 

  Pressure of configuration =         0.000 GPa 

  Fractional coordinates of asymmetric unit :

--------------------------------------------------------------------------------
   No.  Atomic       x           y          z         Charge      Occupancy
        Label      (Frac)      (Frac)     (Frac)        (e)         (Frac)  
--------------------------------------------------------------------------------
      1 Ti    c    0.710817    0.756731    0.119981     2.19600    1.000000    
      2 Ti    c    0.470129 *  0.275390 *  0.360647 *   2.19600    1.000000    
      3 Ti    c    0.890260 *  0.152984 *  0.780792 *   2.19600    1.000000    
      4 Ti    c    0.168247 *  0.634324 *  0.540112 *   2.19600    1.000000    
      5 O     c    0.527880 *  0.853492 *  0.829972 *  -1.09800    1.000000    
      6 O     c    0.110491 *  0.056223 *  0.070801 *  -1.09800    1.000000    
      7 O     c    0.781486 *  0.537563 *  0.723033 *  -1.09800    1.000000    
      8 O     c    0.819609 *  0.372172 *  0.177758 *  -1.09800    1.000000    
      9 O     c    0.217430 *  0.372143 *  0.640318 *  -1.09800    1.000000    
     10 O     c    0.420949 *  0.537575 *  0.260437 *  -1.09800    1.000000    
     11 O     c    0.610593 *  0.056234 *  0.431343 *  -1.09800    1.000000    
     12 O     c    0.027749 *  0.853487 *  0.469437 *  -1.09800    1.000000    
--------------------------------------------------------------------------------



********************************************************************************
*  General input information                                                   *
********************************************************************************

  Species output for all configurations : 

--------------------------------------------------------------------------------
  Species    Type    Atomic    Atomic    Charge       Radii (Angs)     Library
                     Number     Mass       (e)     Cova   Ionic  VDW   Symbol
--------------------------------------------------------------------------------
    Ti       Core       22      47.88   2.196000   1.470  0.000  2.190          
    O        Core        8      16.00  -1.098000   0.730  0.000  1.360          
--------------------------------------------------------------------------------


  Lattice summation method               =    Ewald          (3-D)
                                         =    Parry          (2-D)
                                         =    Saunders et al (1-D)
  Accuracy factor for lattice sums       =   12.000


  Analytic derivatives to be used

  Time limit = Infinity

  Maximum range for interatomic potentials =    100000.000000 Angstroms

  General interatomic potentials :

--------------------------------------------------------------------------------
Atom  Types   Potential      Parameter       Value         Units   Cutoffs(Ang)
  1     2                                                            Min /  Max 
--------------------------------------------------------------------------------
Ti   c Ti   c Buckingham    Buckingham A     31120.100    eV        0.000 15.000
                            Buckingham rho  0.15400000    Ang       
                            Buckingham C     5.2500000    eV*Ang^6  
--------------------------------------------------------------------------------
O    c O    c Buckingham    Buckingham A     11782.700    eV        0.000 15.000
                            Buckingham rho  0.23400000    Ang       
                            Buckingham C     30.220000    eV*Ang^6  
--------------------------------------------------------------------------------
O    c Ti   c Buckingham    Buckingham A     16957.500    eV        0.000 15.000
                            Buckingham rho  0.19400000    Ang       
                            Buckingham C     12.590000    eV*Ang^6  
--------------------------------------------------------------------------------
Ti   c Ti   c Lennard       Lennard-Jones A  1.0000000    eV*Ang^m  0.000 15.000
                            Lennard-Jones B  0.0000000    eV*Ang^n  
                            Exponent m        12          None
                            Exponent n         6          None
--------------------------------------------------------------------------------
O    c O    c Lennard       Lennard-Jones A  1.0000000    eV*Ang^m  0.000 15.000
                            Lennard-Jones B  0.0000000    eV*Ang^n  
                            Exponent m        12          None
                            Exponent n         6          None
--------------------------------------------------------------------------------
O    c Ti   c Lennard       Lennard-Jones A  1.0000000    eV*Ang^m  0.000 15.000
                            Lennard-Jones B  0.0000000    eV*Ang^n  
                            Exponent m        12          None
                            Exponent n         6          None
--------------------------------------------------------------------------------

********************************************************************************
*  Output for configuration   1                                                *
********************************************************************************


  Components of energy : 

--------------------------------------------------------------------------------
  Interatomic potentials     =         168.99081457 eV    
  Monopole - monopole (real) =         -36.56139119 eV    
  Monopole - monopole (recip)=         -98.74761881 eV    
  Monopole - monopole (total)=        -135.30901000 eV    
--------------------------------------------------------------------------------
  Total lattice energy       =          33.68180457 eV    
--------------------------------------------------------------------------------
  Total lattice energy       =            3249.7793 kJ/(mole unit cells)
--------------------------------------------------------------------------------


  Number of variables =       39

  Maximum number of calculations  =          1000
  Maximum Hessian update interval =            10
  Maximum step size               =   1.000000000
  Maximum parameter tolerance     =   0.000010000
  Maximum function  tolerance     =   0.000010000
  Maximum gradient  tolerance     =   0.001000000
  Maximum gradient  component     =   0.010000000

  Symmetry not applied to optimisation

  Cell parameters to be optimised using strains

  Conjugate gradient optimiser to be used

  Lower half triangular hessian to be used

  Minimiser to switch to BFGS with exact hessian
  When gradient norm is less than     0.500000

  Start of bulk optimisation :

  Cycle:      0 Energy:        33.681805  Gnorm:     54.870438  CPU:    0.047
  Cycle:      1 Energy:       -95.052862  Gnorm:     14.340277  CPU:    0.120
  Cycle:      2 Energy:      -115.852583  Gnorm:     10.666735  CPU:    0.193
  Cycle:      3 Energy:      -132.360791  Gnorm:      3.594235  CPU:    0.293
  Cycle:      4 Energy:      -134.905508  Gnorm:      2.442041  CPU:    0.381
  Cycle:      5 Energy:      -136.555020  Gnorm:      2.076181  CPU:    0.468
  Cycle:      6 Energy:      -137.770990  Gnorm:      4.773304  CPU:    0.536
  Cycle:      7 Energy:      -138.037680  Gnorm:      3.768818  CPU:    0.624
  Cycle:      8 Energy:      -139.612342  Gnorm:      1.509544  CPU:    0.709
  Cycle:      9 Energy:      -140.089115  Gnorm:      1.325501  CPU:    0.797
  Cycle:     10 Energy:      -140.327852  Gnorm:      1.215339  CPU:    0.866
  Cycle:     11 Energy:      -141.360706  Gnorm:      1.913983  CPU:    0.955
  Cycle:     12 Energy:      -142.410052  Gnorm:      2.608951  CPU:    1.025
  Cycle:     13 Energy:      -143.572365  Gnorm:      1.589248  CPU:    1.115
  Cycle:     14 Energy:      -144.460510  Gnorm:      1.655245  CPU:    1.202
  Cycle:     15 Energy:      -145.473075  Gnorm:      1.980295  CPU:    1.294
  Cycle:     16 Energy:      -146.373913  Gnorm:      1.111964  CPU:    1.365
  Cycle:     17 Energy:      -146.979471  Gnorm:      1.652478  CPU:    1.458
  Cycle:     18 Energy:      -147.485279  Gnorm:      1.313630  CPU:    1.530
  Cycle:     19 Energy:      -148.022026  Gnorm:      1.662108  CPU:    1.623
  Cycle:     20 Energy:      -148.222250  Gnorm:      0.873039  CPU:    1.714
  Cycle:     21 Energy:      -148.615999  Gnorm:      1.231315  CPU:    1.809
  Cycle:     22 Energy:      -148.981886  Gnorm:      1.292520  CPU:    1.883
  Cycle:     23 Energy:      -149.266481  Gnorm:      1.171041  CPU:    1.958
  Cycle:     24 Energy:      -149.648436  Gnorm:      1.245852  CPU:    2.054
  Cycle:     25 Energy:      -149.886680  Gnorm:      1.044359  CPU:    2.134
  Cycle:     26 Energy:      -150.096163  Gnorm:      0.969104  CPU:    2.228
  Cycle:     27 Energy:      -150.346778  Gnorm:      1.101552  CPU:    2.326
  Cycle:     28 Energy:      -150.635223  Gnorm:      1.189663  CPU:    2.421
  Cycle:     29 Energy:      -150.915775  Gnorm:      0.993106  CPU:    2.501
  Cycle:     30 Energy:      -151.045568  Gnorm:      0.760937  CPU:    2.577
  Cycle:     31 Energy:      -151.176183  Gnorm:      0.610017  CPU:    2.675
  Cycle:     32 Energy:      -151.259296  Gnorm:      0.528479  CPU:    2.770
  Cycle:     33 Energy:      -151.357449  Gnorm:      0.678492  CPU:    2.869
  Cycle:     34 Energy:      -151.458382  Gnorm:      0.698624  CPU:    2.946
  Cycle:     35 Energy:      -151.593689  Gnorm:      0.832394  CPU:    3.045
  Cycle:     36 Energy:      -151.808366  Gnorm:      1.033420  CPU:    3.140
  Cycle:     37 Energy:      -152.034026  Gnorm:      0.949324  CPU:    3.221
  Cycle:     38 Energy:      -152.319382  Gnorm:      0.862269  CPU:    3.318
  Cycle:     39 Energy:      -152.487087  Gnorm:      1.127390  CPU:    3.399
  Cycle:     40 Energy:      -152.591319  Gnorm:      0.612592  CPU:    3.476
  Cycle:     41 Energy:      -152.684762  Gnorm:      0.655819  CPU:    3.574
  Cycle:     42 Energy:      -152.779008  Gnorm:      0.610283  CPU:    3.651
  Cycle:     43 Energy:      -152.865013  Gnorm:      0.435960  CPU:    3.749
  ** Hessian calculated **
  Cycle:     44 Energy:      -153.059098  Gnorm:      0.369036  CPU:    3.912
  ** Hessian calculated **
  Cycle:     45 Energy:      -153.181488  Gnorm:      0.602336  CPU:    4.034
  Cycle:     46 Energy:      -153.246927  Gnorm:      0.375591  CPU:    4.114
  Cycle:     47 Energy:      -153.317565  Gnorm:      0.499396  CPU:    4.214
  Cycle:     48 Energy:      -153.387757  Gnorm:      0.510833  CPU:    4.310
  Cycle:     49 Energy:      -153.458668  Gnorm:      0.468542  CPU:    4.412
  Cycle:     50 Energy:      -153.537251  Gnorm:      0.456009  CPU:    4.513
  Cycle:     51 Energy:      -153.600936  Gnorm:      0.376437  CPU:    4.614
  Cycle:     52 Energy:      -153.716487  Gnorm:      0.726951  CPU:    4.711
  Cycle:     53 Energy:      -153.825635  Gnorm:      0.529406  CPU:    4.793
  Cycle:     54 Energy:      -153.940076  Gnorm:      0.635288  CPU:    4.891
  ** Hessian calculated **
  Cycle:     55 Energy:      -154.019085  Gnorm:      0.443853  CPU:    5.020
  Cycle:     56 Energy:      -154.114492  Gnorm:      0.686429  CPU:    5.117
  Cycle:     57 Energy:      -154.251103  Gnorm:      0.481265  CPU:    5.218
  Cycle:     58 Energy:      -154.448330  Gnorm:      0.795659  CPU:    5.315
  Cycle:     59 Energy:      -154.671591  Gnorm:      0.786569  CPU:    5.417
  Cycle:     60 Energy:      -155.059377  Gnorm:      1.060406  CPU:    5.515
  Cycle:     61 Energy:      -155.501917  Gnorm:      0.868410  CPU:    5.614
  Cycle:     62 Energy:      -155.777793  Gnorm:      0.958008  CPU:    5.690
  Cycle:     63 Energy:      -156.025962  Gnorm:      1.051274  CPU:    5.771
  Cycle:     64 Energy:      -156.196999  Gnorm:      0.428618  CPU:    5.849
  ** Hessian calculated **
  Cycle:     65 Energy:      -156.282942  Gnorm:      0.520544  CPU:    5.976
  Cycle:     66 Energy:      -156.333250  Gnorm:      0.319374  CPU:    6.050
  Cycle:     67 Energy:      -156.384209  Gnorm:      0.338087  CPU:    6.145
  Cycle:     68 Energy:      -156.424618  Gnorm:      0.242747  CPU:    6.238
  Cycle:     69 Energy:      -156.482188  Gnorm:      0.323256  CPU:    6.335
  Cycle:     70 Energy:      -156.521250  Gnorm:      0.298504  CPU:    6.411
  Cycle:     71 Energy:      -156.575451  Gnorm:      0.483660  CPU:    6.509
  Cycle:     72 Energy:      -156.625810  Gnorm:      0.204017  CPU:    6.604
  Cycle:     73 Energy:      -156.653570  Gnorm:      0.248501  CPU:    6.684
  Cycle:     74 Energy:      -156.684499  Gnorm:      0.216830  CPU:    6.778
  ** Hessian calculated **
  Cycle:     75 Energy:      -156.805625  Gnorm:      0.199300  CPU:    6.962
  Cycle:     76 Energy:      -156.860402  Gnorm:      0.194573  CPU:    7.037
  ** Hessian calculated **
  Cycle:     77 Energy:      -156.898977  Gnorm:      0.030493  CPU:    7.188
  Cycle:     78 Energy:      -156.900211  Gnorm:      0.020831  CPU:    7.264
  Cycle:     79 Energy:      -156.900574  Gnorm:      0.003038  CPU:    7.344
  Cycle:     80 Energy:      -156.900590  Gnorm:      0.000941  CPU:    7.439


  **** Optimisation achieved ****


  Final energy =    -156.90059019 eV      
  Final Gnorm  =       0.00018279

  Components of energy : 

--------------------------------------------------------------------------------
  Interatomic potentials     =          13.10945611 eV    
  Monopole - monopole (real) =         -72.63286707 eV    
  Monopole - monopole (recip)=         -97.37717923 eV    
  Monopole - monopole (total)=        -170.01004630 eV    
--------------------------------------------------------------------------------
  Total lattice energy       =        -156.90059019 eV    
--------------------------------------------------------------------------------
  Total lattice energy       =          -15138.5085 kJ/(mole unit cells)
--------------------------------------------------------------------------------

  Final fractional coordinates of atoms :

--------------------------------------------------------------------------------
   No.  Atomic        x           y          z          Radius
        Label       (Frac)      (Frac)     (Frac)       (Angs) 
--------------------------------------------------------------------------------
     1  Ti    c     0.710817    0.756731    0.119981    0.000000
     2  Ti    c     0.371481    0.194796    0.492536    0.000000
     3  Ti    c     0.515508    0.071726    0.917753    0.000000
     4  Ti    c     0.854836    0.633660    0.545199    0.000000
     5  O     c     0.764428    0.990755    0.885437    0.000000
     6  O     c     0.461896    0.837702    0.152297    0.000000
     7  O     c     0.344580    0.548527    0.757492    0.000000
     8  O     c     0.881738    0.279929    0.280241    0.000000
     9  O     c     0.057936    0.177547    0.745704    0.000000
    10  O     c     0.168422    0.650924    0.292044    0.000000
    11  O     c     0.667221    0.114957    0.417358    0.000000
    12  O     c     0.559097    0.713499    0.620375    0.000000
--------------------------------------------------------------------------------

  Final Cartesian lattice vectors (Angstroms) :

        2.461659   -2.797406    0.392452
       -3.410729   13.896494   -4.757428
        0.591685   -3.498813    7.122273


  Final cell parameters and derivatives :

--------------------------------------------------------------------------------
       a            3.746900 Angstrom     dE/de1(xx)    -0.000869 eV/strain
       b           15.079083 Angstrom     dE/de2(yy)    -0.000847 eV/strain
       c            7.957296 Angstrom     dE/de3(zz)    -0.000014 eV/strain
       alpha      134.783078 Degrees      dE/de4(yz)    -0.000360 eV/strain
       beta        61.908785 Degrees      dE/de5(xz)    -0.000597 eV/strain
       gamma      150.422471 Degrees      dE/de6(xy)     0.000254 eV/strain
--------------------------------------------------------------------------------

  Primitive cell volume =           144.042455 Angs**3

  Density of cell =      3.683524 g/cm**3

  Non-primitive cell volume =           144.042455 Angs**3


  Final internal derivatives :

--------------------------------------------------------------------------------
   No.  Atomic          a             b             c           Radius
        Label          (eV)          (eV)          (eV)        (eV/Angs)
--------------------------------------------------------------------------------
      1 Ti    c       0.000000      0.000000      0.000000      0.000000
      2 Ti    c      -0.000071      0.000137     -0.001071      0.000000
      3 Ti    c      -0.000410     -0.000692      0.003019      0.000000
      4 Ti    c       0.000098     -0.000812      0.001434      0.000000
      5 O     c      -0.000032     -0.000767      0.000208      0.000000
      6 O     c       0.000240      0.000242     -0.000147      0.000000
      7 O     c      -0.000391      0.002392      0.002564      0.000000
      8 O     c       0.000226     -0.002362     -0.002982      0.000000
      9 O     c      -0.000065      0.000278      0.001289      0.000000
     10 O     c      -0.000065      0.001010     -0.001473      0.000000
     11 O     c      -0.000202      0.000501     -0.001319      0.000000
     12 O     c      -0.000143      0.000621      0.000125      0.000000
--------------------------------------------------------------------------------
  Maximum abs         0.000410      0.002392      0.003019      0.000000
--------------------------------------------------------------------------------


  Time to end of optimisation =       7.5188 seconds


  Peak dynamic memory used =       1.84 MB 


  Timing analysis for GULP :

--------------------------------------------------------------------------------
  Task / Subroutine                                          Time (Seconds)
--------------------------------------------------------------------------------
  Calculation of reciprocal space energy and derivatives          0.1259
  Calculation of real space energy and derivatives                7.3662
  Calculation and manipulation of Hessian matrix                  0.0006
  Calculation of matrix inversion                                 0.0012
  Global summation overhead                                       0.0005
--------------------------------------------------------------------------------
  Total CPU time                                                  7.5189
--------------------------------------------------------------------------------


  Job Finished at 11:18.02 29th May        2024                               

