********************************************************************************
*                       GENERAL UTILITY LATTICE PROGRAM                        *
*                                 Julian Gale                                  *
*                       Curtin Institute for Computation                       *
*                    School of Molecular and Life Sciences                     *
*                    Curtin University, Western Australia                      *
********************************************************************************
* Version = 6.0.0 * Last modified =  12th July 2021                            *
********************************************************************************
*  optimise     - perform optimisation run                                     *
*  conv         - constant volume calculation                                  *
*  conjugate    - use conjugate gradients minimiser                            *
********************************************************************************

  Job Started  at 16:04.59  3rd June       2024                               

  Number of CPUs =     1


  Total number of configurations input =      1

********************************************************************************
*  Input for Configuration =   1                                               *
********************************************************************************

  Formula = C6                                                          

  Number of irreducible atoms/shells =       6


  Total number atoms/shells =       6

  Dimensionality = 3               :  Bulk   



  Cartesian lattice vectors (Angstroms) :

        6.505404    0.000000    0.000000
        0.000000    6.256925    0.000000
        0.000000    0.000000   18.000000

  Cell parameters (Angstroms/Degrees):

  a =       6.5054    alpha =  90.0000
  b =       6.2569    beta  =  90.0000
  c =      18.0000    gamma =  90.0000

  Initial cell volume =         732.668871 Angs**3

  Temperature of configuration =   0.00     K 

  Pressure of configuration =         0.000 GPa 

  Fractional coordinates of asymmetric unit :

--------------------------------------------------------------------------------
   No.  Atomic       x           y          z         Charge      Occupancy
        Label      (Frac)      (Frac)     (Frac)        (e)         (Frac)  
--------------------------------------------------------------------------------
      1 C     c    0.000000    0.500000    0.500000     0.00000    1.000000    
      2 C     c    0.500000 *  0.000000 *  0.500000 *   0.00000    1.000000    
      3 C     c    0.659306 *  0.101880 *  0.500000 *   0.00000    1.000000    
      4 C     c    0.340694 *  0.898120 *  0.500000 *   0.00000    1.000000    
      5 C     c    0.159306 *  0.398120 *  0.500000 *   0.00000    1.000000    
      6 C     c    0.840694 *  0.601880 *  0.500000 *   0.00000    1.000000    
--------------------------------------------------------------------------------



********************************************************************************
*  General input information                                                   *
********************************************************************************

  Species output for all configurations : 

--------------------------------------------------------------------------------
  Species    Type    Atomic    Atomic    Charge       Radii (Angs)     Library
                     Number     Mass       (e)     Cova   Ionic  VDW   Symbol
--------------------------------------------------------------------------------
    C        Core        6      12.01   0.000000   0.770  0.000  1.530          
--------------------------------------------------------------------------------


  Lattice summation method               =    Ewald          (3-D)
                                         =    Parry          (2-D)
                                         =    Saunders et al (1-D)
  Accuracy factor for lattice sums       =   12.000


  Analytic derivatives to be used

  Time limit = Infinity

  Maximum range for interatomic potentials =    100000.000000 Angstroms

  EDIP forcefield to be used

  EDIP Coordination Number :

--------------------------------------------------------------------------------
 Atom Types   Sigma    alpha      f_low      f_high     p_low      p_high       
               or                 (Ang)      (Ang)      (Ang)      (Ang)        
  1     2     Pi       Zdih       Zrep       c0                                 
                                             (Ang)                              
--------------------------------------------------------------------------------
C    c C    c pi       1.54400    1.54700    2.27000    1.48100    2.00000
                       0.30000    0.06000    3.20000
--------------------------------------------------------------------------------

  EDIP Twobody Energy :

--------------------------------------------------------------------------------
Atom  Types   Epsilon     p     B       Beta      Sigma       a       a_prime   
  1     2      (eV)           (Ang)     (Ang)     (Ang)     (Ang)     (Ang)     
--------------------------------------------------------------------------------
C    c C    c   20.090004.000    0.9538    0.0490    1.2570    1.8920    0.1700
--------------------------------------------------------------------------------

  EDIP Threebody Energy (New form) :

--------------------------------------------------------------------------------
 Atom  Types               Lambda0/          Lambda_prime/       Z0/            
  1     2     3            Gamma             Gamma_prime         q              
--------------------------------------------------------------------------------
C    c C    c C    c       79.340000         0.300000         3.615000
                            1.354000         0.936000         3.500000
--------------------------------------------------------------------------------

********************************************************************************
*  Output for configuration   1                                                *
********************************************************************************


  Components of energy : 

--------------------------------------------------------------------------------
  Interatomic potentials     =           0.00000000 eV    
  EDIP force field           =         -20.78967567 eV    
  Monopole - monopole (real) =           0.00000000 eV    
  Monopole - monopole (recip)=           0.00000000 eV    
  Monopole - monopole (total)=           0.00000000 eV    
--------------------------------------------------------------------------------
  Total lattice energy       =         -20.78967567 eV    
--------------------------------------------------------------------------------
  Total lattice energy       =           -2005.8859 kJ/(mole unit cells)
--------------------------------------------------------------------------------


  Number of variables =       15

  Maximum number of calculations  =          1000
  Maximum Hessian update interval =            10
  Maximum step size               =   1.000000000
  Maximum parameter tolerance     =   0.000010000
  Maximum function  tolerance     =   0.000010000
  Maximum gradient  tolerance     =   0.001000000
  Maximum gradient  component     =   0.010000000

  Symmetry not applied to optimisation

  Conjugate gradient optimiser to be used

  Lower half triangular hessian to be used

  Minimiser to switch to BFGS with exact hessian
  When gradient norm is less than     0.500000

  Start of bulk optimisation :

  Cycle:      0 Energy:       -20.789676  Gnorm:      4.398407  CPU:    0.009
  Cycle:      1 Energy:       -21.392947  Gnorm:      0.015165  CPU:    0.009


!!!!!!!!!!!!!!!!!!!!!!!!!!!!!!!!!!!!!!!!!!!!!!!!!!!!!!!!!!!!!!!!!!!!!!!!!!!!!!!!
!! WARNING : ill conditioned Hessian - using diagonal elements only
!!!!!!!!!!!!!!!!!!!!!!!!!!!!!!!!!!!!!!!!!!!!!!!!!!!!!!!!!!!!!!!!!!!!!!!!!!!!!!!!

  ** Hessian calculated **
  Cycle:      2 Energy:       -21.392955  Gnorm:      0.001022  CPU:    0.010


!!!!!!!!!!!!!!!!!!!!!!!!!!!!!!!!!!!!!!!!!!!!!!!!!!!!!!!!!!!!!!!!!!!!!!!!!!!!!!!!
!! WARNING : ill conditioned Hessian - using diagonal elements only
!!!!!!!!!!!!!!!!!!!!!!!!!!!!!!!!!!!!!!!!!!!!!!!!!!!!!!!!!!!!!!!!!!!!!!!!!!!!!!!!

  ** Hessian calculated **


  **** Optimisation achieved ****


  Final energy =     -21.39295530 eV      
  Final Gnorm  =       0.00056857

  Components of energy : 

--------------------------------------------------------------------------------
  Interatomic potentials     =           0.00000000 eV    
  EDIP force field           =         -21.39295530 eV    
  Monopole - monopole (real) =           0.00000000 eV    
  Monopole - monopole (recip)=           0.00000000 eV    
  Monopole - monopole (total)=           0.00000000 eV    
--------------------------------------------------------------------------------
  Total lattice energy       =         -21.39295530 eV    
--------------------------------------------------------------------------------
  Total lattice energy       =           -2064.0932 kJ/(mole unit cells)
--------------------------------------------------------------------------------

  Final fractional coordinates of atoms :

--------------------------------------------------------------------------------
   No.  Atomic        x           y          z          Radius
        Label       (Frac)      (Frac)     (Frac)       (Angs) 
--------------------------------------------------------------------------------
     1  C     c     0.000000    0.500000    0.500000    0.000000
     2  C     c     0.500000    0.000000    0.500000    0.000000
     3  C     c     0.667576    0.106772    0.500000    0.000000
     4  C     c     0.332424    0.893228    0.500000    0.000000
     5  C     c     0.167576    0.393228    0.500000    0.000000
     6  C     c     0.832424    0.606772    0.500000    0.000000
--------------------------------------------------------------------------------

  Final internal derivatives :

--------------------------------------------------------------------------------
   No.  Atomic          a             b             c           Radius
        Label          (eV)          (eV)          (eV)        (eV/Angs)
--------------------------------------------------------------------------------
      1 C     c       0.000000      0.000000      0.000000      0.000000
      2 C     c       0.000000      0.000000      0.000000      0.000000
      3 C     c       0.003674      0.002165      0.000000      0.000000
      4 C     c      -0.003674     -0.002165      0.000000      0.000000
      5 C     c       0.003674     -0.002165      0.000000      0.000000
      6 C     c      -0.003674      0.002165      0.000000      0.000000
--------------------------------------------------------------------------------
  Maximum abs         0.003674      0.002165      0.000000      0.000000
--------------------------------------------------------------------------------


  Time to end of optimisation =       0.0106 seconds


  Peak dynamic memory used =       1.80 MB 


  Timing analysis for GULP :

--------------------------------------------------------------------------------
  Task / Subroutine                                          Time (Seconds)
--------------------------------------------------------------------------------
  Calculation of EDIP energy and derivatives                      0.0009
--------------------------------------------------------------------------------
  Total CPU time                                                  0.0106
--------------------------------------------------------------------------------


  Job Finished at 16:04.59  3rd June       2024                               

