********************************************************************************
*                       GENERAL UTILITY LATTICE PROGRAM                        *
*                                 Julian Gale                                  *
*                       Curtin Institute for Computation                       *
*                    School of Molecular and Life Sciences                     *
*                    Curtin University, Western Australia                      *
********************************************************************************
* Version = 6.0.0 * Last modified =  12th July 2021                            *
********************************************************************************
*  optimise     - perform optimisation run                                     *
*  conv         - constant volume calculation                                  *
*  conjugate    - use conjugate gradients minimiser                            *
********************************************************************************

  Job Started  at 16:04.59  3rd June       2024                               

  Number of CPUs =     1


  Total number of configurations input =      1

********************************************************************************
*  Input for Configuration =   1                                               *
********************************************************************************

  Formula = C6                                                          

  Number of irreducible atoms/shells =       6


  Total number atoms/shells =       6

  Dimensionality = 3               :  Bulk   



  Cartesian lattice vectors (Angstroms) :

        5.256255    0.000000    0.000000
        0.000000    3.757538    0.000000
        0.000000    0.000000   18.000000

  Cell parameters (Angstroms/Degrees):

  a =       5.2563    alpha =  90.0000
  b =       3.7575    beta  =  90.0000
  c =      18.0000    gamma =  90.0000

  Initial cell volume =         355.510369 Angs**3

  Temperature of configuration =   0.00     K 

  Pressure of configuration =         0.000 GPa 

  Fractional coordinates of asymmetric unit :

--------------------------------------------------------------------------------
   No.  Atomic       x           y          z         Charge      Occupancy
        Label      (Frac)      (Frac)     (Frac)        (e)         (Frac)  
--------------------------------------------------------------------------------
      1 C     c    0.141136    0.412809    0.500000     0.00000    1.000000    
      2 C     c    0.858864 *  0.587191 *  0.500000 *   0.00000    1.000000    
      3 C     c    0.641136 *  0.087191 *  0.500000 *   0.00000    1.000000    
      4 C     c    0.358864 *  0.912809 *  0.500000 *   0.00000    1.000000    
      5 C     c    0.000000 *  0.500000 *  0.500000 *   0.00000    1.000000    
      6 C     c    0.500000 *  0.000000 *  0.500000 *   0.00000    1.000000    
--------------------------------------------------------------------------------



********************************************************************************
*  General input information                                                   *
********************************************************************************

  Species output for all configurations : 

--------------------------------------------------------------------------------
  Species    Type    Atomic    Atomic    Charge       Radii (Angs)     Library
                     Number     Mass       (e)     Cova   Ionic  VDW   Symbol
--------------------------------------------------------------------------------
    C        Core        6      12.01   0.000000   0.770  0.000  1.530          
--------------------------------------------------------------------------------


  Lattice summation method               =    Ewald          (3-D)
                                         =    Parry          (2-D)
                                         =    Saunders et al (1-D)
  Accuracy factor for lattice sums       =   12.000


  Analytic derivatives to be used

  Time limit = Infinity

  Maximum range for interatomic potentials =    100000.000000 Angstroms

  EDIP forcefield to be used

  EDIP Coordination Number :

--------------------------------------------------------------------------------
 Atom Types   Sigma    alpha      f_low      f_high     p_low      p_high       
               or                 (Ang)      (Ang)      (Ang)      (Ang)        
  1     2     Pi       Zdih       Zrep       c0                                 
                                             (Ang)                              
--------------------------------------------------------------------------------
C    c C    c pi       1.54400    1.54700    2.27000    1.48100    2.00000
                       0.30000    0.06000    3.20000
--------------------------------------------------------------------------------

  EDIP Twobody Energy :

--------------------------------------------------------------------------------
Atom  Types   Epsilon     p     B       Beta      Sigma       a       a_prime   
  1     2      (eV)           (Ang)     (Ang)     (Ang)     (Ang)     (Ang)     
--------------------------------------------------------------------------------
C    c C    c   20.090004.000    0.9538    0.0490    1.2570    1.8920    0.1700
--------------------------------------------------------------------------------

  EDIP Threebody Energy (New form) :

--------------------------------------------------------------------------------
 Atom  Types               Lambda0/          Lambda_prime/       Z0/            
  1     2     3            Gamma             Gamma_prime         q              
--------------------------------------------------------------------------------
C    c C    c C    c       79.340000         0.300000         3.615000
                            1.354000         0.936000         3.500000
--------------------------------------------------------------------------------

********************************************************************************
*  Output for configuration   1                                                *
********************************************************************************


  Components of energy : 

--------------------------------------------------------------------------------
  Interatomic potentials     =           0.00000000 eV    
  EDIP force field           =          66.99095436 eV    
  Monopole - monopole (real) =           0.00000000 eV    
  Monopole - monopole (recip)=           0.00000000 eV    
  Monopole - monopole (total)=           0.00000000 eV    
--------------------------------------------------------------------------------
  Total lattice energy       =          66.99095436 eV    
--------------------------------------------------------------------------------
  Total lattice energy       =            6463.6030 kJ/(mole unit cells)
--------------------------------------------------------------------------------


  Number of variables =       15

  Maximum number of calculations  =          1000
  Maximum Hessian update interval =            10
  Maximum step size               =   1.000000000
  Maximum parameter tolerance     =   0.000010000
  Maximum function  tolerance     =   0.000010000
  Maximum gradient  tolerance     =   0.001000000
  Maximum gradient  component     =   0.010000000

  Symmetry not applied to optimisation

  Conjugate gradient optimiser to be used

  Lower half triangular hessian to be used

  Minimiser to switch to BFGS with exact hessian
  When gradient norm is less than     0.500000

  Start of bulk optimisation :

  Cycle:      0 Energy:        66.990954  Gnorm:     90.834683  CPU:    0.011
  Cycle:      1 Energy:         4.697340  Gnorm:     54.839480  CPU:    0.012
  Cycle:      2 Energy:       -10.798661  Gnorm:     18.195905  CPU:    0.013
  Cycle:      3 Energy:       -17.395035  Gnorm:     13.010158  CPU:    0.014
  Cycle:      4 Energy:       -25.662355  Gnorm:     10.678161  CPU:    0.015
  Cycle:      5 Energy:       -27.602628  Gnorm:      4.297133  CPU:    0.016
  Cycle:      6 Energy:       -28.889271  Gnorm:      3.350579  CPU:    0.017
  Cycle:      7 Energy:       -30.566533  Gnorm:      4.910249  CPU:    0.018
  Cycle:      8 Energy:       -32.842362  Gnorm:      4.073577  CPU:    0.019
  Cycle:      9 Energy:       -34.468423  Gnorm:      1.574162  CPU:    0.019
  Cycle:     10 Energy:       -34.614333  Gnorm:      0.874956  CPU:    0.020
  Cycle:     11 Energy:       -34.728777  Gnorm:      0.918386  CPU:    0.020
  Cycle:     12 Energy:       -34.873259  Gnorm:      0.823290  CPU:    0.021
  Cycle:     13 Energy:       -34.953381  Gnorm:      0.613434  CPU:    0.021
  Cycle:     14 Energy:       -34.990888  Gnorm:      0.413380  CPU:    0.022


!!!!!!!!!!!!!!!!!!!!!!!!!!!!!!!!!!!!!!!!!!!!!!!!!!!!!!!!!!!!!!!!!!!!!!!!!!!!!!!!
!! WARNING : ill conditioned Hessian - using diagonal elements only
!!!!!!!!!!!!!!!!!!!!!!!!!!!!!!!!!!!!!!!!!!!!!!!!!!!!!!!!!!!!!!!!!!!!!!!!!!!!!!!!

  ** Hessian calculated **
  Cycle:     15 Energy:       -35.008383  Gnorm:      0.354915  CPU:    0.023
  Cycle:     16 Energy:       -35.019867  Gnorm:      0.343038  CPU:    0.024
  Cycle:     17 Energy:       -35.037649  Gnorm:      0.407504  CPU:    0.024
  Cycle:     18 Energy:       -35.058009  Gnorm:      0.409121  CPU:    0.025
  Cycle:     19 Energy:       -35.087481  Gnorm:      0.573571  CPU:    0.025
  Cycle:     20 Energy:       -35.158729  Gnorm:      0.844040  CPU:    0.026
  Cycle:     21 Energy:       -35.183731  Gnorm:      0.997327  CPU:    0.026


!!!!!!!!!!!!!!!!!!!!!!!!!!!!!!!!!!!!!!!!!!!!!!!!!!!!!!!!!!!!!!!!!!!!!!!!!!!!!!!!
!! WARNING : ill conditioned Hessian - using diagonal elements only
!!!!!!!!!!!!!!!!!!!!!!!!!!!!!!!!!!!!!!!!!!!!!!!!!!!!!!!!!!!!!!!!!!!!!!!!!!!!!!!!

  ** Hessian calculated **
  Cycle:     22 Energy:       -35.241169  Gnorm:      0.639634  CPU:    0.027
  Cycle:     23 Energy:       -35.292581  Gnorm:      0.572180  CPU:    0.028
  Cycle:     24 Energy:       -35.319959  Gnorm:      0.231139  CPU:    0.028
  Cycle:     25 Energy:       -35.327724  Gnorm:      0.285253  CPU:    0.029
  Cycle:     26 Energy:       -35.340135  Gnorm:      0.296667  CPU:    0.029
  Cycle:     27 Energy:       -35.369641  Gnorm:      0.541476  CPU:    0.030
  Cycle:     28 Energy:       -35.434599  Gnorm:      0.513597  CPU:    0.031
  Cycle:     29 Energy:       -35.441809  Gnorm:      0.504998  CPU:    0.032
  Cycle:     30 Energy:       -35.451279  Gnorm:      0.452931  CPU:    0.032


!!!!!!!!!!!!!!!!!!!!!!!!!!!!!!!!!!!!!!!!!!!!!!!!!!!!!!!!!!!!!!!!!!!!!!!!!!!!!!!!
!! WARNING : ill conditioned Hessian - using diagonal elements only
!!!!!!!!!!!!!!!!!!!!!!!!!!!!!!!!!!!!!!!!!!!!!!!!!!!!!!!!!!!!!!!!!!!!!!!!!!!!!!!!

  ** Hessian calculated **
  Cycle:     31 Energy:       -35.459510  Gnorm:      0.155051  CPU:    0.033
  Cycle:     32 Energy:       -35.461336  Gnorm:      0.160705  CPU:    0.034
  Cycle:     33 Energy:       -35.462009  Gnorm:      0.139353  CPU:    0.034
  Cycle:     34 Energy:       -35.462400  Gnorm:      0.134484  CPU:    0.035
  Cycle:     35 Energy:       -35.462920  Gnorm:      0.125372  CPU:    0.035
  Cycle:     36 Energy:       -35.462987  Gnorm:      0.124558  CPU:    0.036


!!!!!!!!!!!!!!!!!!!!!!!!!!!!!!!!!!!!!!!!!!!!!!!!!!!!!!!!!!!!!!!!!!!!!!!!!!!!!!!!
!! WARNING : ill conditioned Hessian - using diagonal elements only
!!!!!!!!!!!!!!!!!!!!!!!!!!!!!!!!!!!!!!!!!!!!!!!!!!!!!!!!!!!!!!!!!!!!!!!!!!!!!!!!

  ** Hessian calculated **
  Cycle:     37 Energy:       -35.463582  Gnorm:      0.022438  CPU:    0.037
  Cycle:     38 Energy:       -35.463624  Gnorm:      0.021766  CPU:    0.037
  Cycle:     39 Energy:       -35.463650  Gnorm:      0.017604  CPU:    0.038
  Cycle:     40 Energy:       -35.463662  Gnorm:      0.017230  CPU:    0.038
  Cycle:     41 Energy:       -35.463668  Gnorm:      0.017198  CPU:    0.039
  Cycle:     42 Energy:       -35.463670  Gnorm:      0.017197  CPU:    0.039
  Cycle:     43 Energy:       -35.463671  Gnorm:      0.017198  CPU:    0.040
  Cycle:     44 Energy:       -35.463671  Gnorm:      0.017197  CPU:    0.040
  Cycle:     45 Energy:       -35.463671  Gnorm:      0.017197  CPU:    0.040
  Cycle:     46 Energy:       -35.463671  Gnorm:      0.017197  CPU:    0.041
  Cycle:     47 Energy:       -35.463672  Gnorm:      0.017197  CPU:    0.041
  Cycle:     48 Energy:       -35.463672  Gnorm:      0.017197  CPU:    0.042
  Cycle:     49 Energy:       -35.463672  Gnorm:      0.017197  CPU:    0.042
  Cycle:     50 Energy:       -35.463672  Gnorm:      0.017197  CPU:    0.042
  Cycle:     51 Energy:       -35.463672  Gnorm:      0.017197  CPU:    0.043
  Cycle:     52 Energy:       -35.463672  Gnorm:      0.017197  CPU:    0.043
  Cycle:     53 Energy:       -35.463672  Gnorm:      0.017197  CPU:    0.044
  Cycle:     54 Energy:       -35.463672  Gnorm:      0.017197  CPU:    0.044
  Cycle:     55 Energy:       -35.463672  Gnorm:      0.017197  CPU:    0.044
  Cycle:     56 Energy:       -35.463672  Gnorm:      0.017197  CPU:    0.045
  Cycle:     57 Energy:       -35.463672  Gnorm:      0.017197  CPU:    0.045
  Cycle:     58 Energy:       -35.463672  Gnorm:      0.017197  CPU:    0.045
  Cycle:     59 Energy:       -35.463672  Gnorm:      0.017197  CPU:    0.046
  Cycle:     60 Energy:       -35.463672  Gnorm:      0.017197  CPU:    0.046
  Cycle:     61 Energy:       -35.463672  Gnorm:      0.017197  CPU:    0.047
  Cycle:     62 Energy:       -35.463672  Gnorm:      0.017197  CPU:    0.047


  **** Too many failed attempts to optimise ****

  Final energy =     -35.46367160 eV      
  Final Gnorm  =       0.01719693

  Components of energy : 

--------------------------------------------------------------------------------
  Interatomic potentials     =           0.00000000 eV    
  EDIP force field           =         -35.46367160 eV    
  Monopole - monopole (real) =           0.00000000 eV    
  Monopole - monopole (recip)=           0.00000000 eV    
  Monopole - monopole (total)=           0.00000000 eV    
--------------------------------------------------------------------------------
  Total lattice energy       =         -35.46367160 eV    
--------------------------------------------------------------------------------
  Total lattice energy       =           -3421.7022 kJ/(mole unit cells)
--------------------------------------------------------------------------------

  Final fractional coordinates of atoms :

--------------------------------------------------------------------------------
   No.  Atomic        x           y          z          Radius
        Label       (Frac)      (Frac)     (Frac)       (Angs) 
--------------------------------------------------------------------------------
     1  C     c     0.141136    0.412809    0.500000    0.000000
     2  C     c     0.707200    0.584459    0.500000    0.000000
     3  C     c     0.799238    0.955709    0.500000    0.000000
     4  C     c     0.273241    0.712841    0.500000    0.000000
     5  C     c     0.891537    0.312480    0.500000    0.000000
     6  C     c     0.508825    0.874865    0.500000    0.000000
--------------------------------------------------------------------------------

  Final internal derivatives :

--------------------------------------------------------------------------------
   No.  Atomic          a             b             c           Radius
        Label          (eV)          (eV)          (eV)        (eV/Angs)
--------------------------------------------------------------------------------
      1 C     c       0.000000      0.000000      0.000000      0.000000
      2 C     c      -0.033666      0.128375      0.000000      0.000000
      3 C     c      -0.128654      0.019565      0.000000      0.000000
      4 C     c      -0.105118      0.025976      0.000000      0.000000
      5 C     c       0.053275      0.119848      0.000000      0.000000
      6 C     c       0.054462     -0.009979      0.000000      0.000000
--------------------------------------------------------------------------------
  Maximum abs         0.128654      0.128375      0.000000      0.000000
--------------------------------------------------------------------------------


  Time to end of optimisation =       0.0483 seconds


  Peak dynamic memory used =       1.80 MB 


  Timing analysis for GULP :

--------------------------------------------------------------------------------
  Task / Subroutine                                          Time (Seconds)
--------------------------------------------------------------------------------
  Calculation of EDIP energy and derivatives                      0.0296
--------------------------------------------------------------------------------
  Total CPU time                                                  0.0483
--------------------------------------------------------------------------------


  Job Finished at 16:04.59  3rd June       2024                               

