********************************************************************************
*                       GENERAL UTILITY LATTICE PROGRAM                        *
*                                 Julian Gale                                  *
*                       Curtin Institute for Computation                       *
*                    School of Molecular and Life Sciences                     *
*                    Curtin University, Western Australia                      *
********************************************************************************
* Version = 6.0.0 * Last modified =  12th July 2021                            *
********************************************************************************
*  optimise     - perform optimisation run                                     *
*  conv         - constant volume calculation                                  *
*  conjugate    - use conjugate gradients minimiser                            *
********************************************************************************

  Job Started  at 16:04.59  3rd June       2024                               

  Number of CPUs =     1


  Total number of configurations input =      1

********************************************************************************
*  Input for Configuration =   1                                               *
********************************************************************************

  Formula = C6                                                          

  Number of irreducible atoms/shells =       6


  Total number atoms/shells =       6

  Dimensionality = 3               :  Bulk   



  Cartesian lattice vectors (Angstroms) :

        3.370616    0.000000    0.000000
        0.000000    4.632960    0.000000
        0.000000    0.000000   18.000000

  Cell parameters (Angstroms/Degrees):

  a =       3.3706    alpha =  90.0000
  b =       4.6330    beta  =  90.0000
  c =      18.0000    gamma =  90.0000

  Initial cell volume =         281.086684 Angs**3

  Temperature of configuration =   0.00     K 

  Pressure of configuration =         0.000 GPa 

  Fractional coordinates of asymmetric unit :

--------------------------------------------------------------------------------
   No.  Atomic       x           y          z         Charge      Occupancy
        Label      (Frac)      (Frac)     (Frac)        (e)         (Frac)  
--------------------------------------------------------------------------------
      1 C     c    0.889301    0.461685    0.500000     0.00000    1.000000    
      2 C     c    0.110699 *  0.538315 *  0.500000 *   0.00000    1.000000    
      3 C     c    0.389301 *  0.038315 *  0.500000 *   0.00000    1.000000    
      4 C     c    0.610699 *  0.961685 *  0.500000 *   0.00000    1.000000    
      5 C     c    0.000000 *  0.000000 *  0.500000 *   0.00000    1.000000    
      6 C     c    0.500000 *  0.500000 *  0.500000 *   0.00000    1.000000    
--------------------------------------------------------------------------------



********************************************************************************
*  General input information                                                   *
********************************************************************************

  Species output for all configurations : 

--------------------------------------------------------------------------------
  Species    Type    Atomic    Atomic    Charge       Radii (Angs)     Library
                     Number     Mass       (e)     Cova   Ionic  VDW   Symbol
--------------------------------------------------------------------------------
    C        Core        6      12.01   0.000000   0.770  0.000  1.530          
--------------------------------------------------------------------------------


  Lattice summation method               =    Ewald          (3-D)
                                         =    Parry          (2-D)
                                         =    Saunders et al (1-D)
  Accuracy factor for lattice sums       =   12.000


  Analytic derivatives to be used

  Time limit = Infinity

  Maximum range for interatomic potentials =    100000.000000 Angstroms

  EDIP forcefield to be used

  EDIP Coordination Number :

--------------------------------------------------------------------------------
 Atom Types   Sigma    alpha      f_low      f_high     p_low      p_high       
               or                 (Ang)      (Ang)      (Ang)      (Ang)        
  1     2     Pi       Zdih       Zrep       c0                                 
                                             (Ang)                              
--------------------------------------------------------------------------------
C    c C    c pi       1.54400    1.54700    2.27000    1.48100    2.00000
                       0.30000    0.06000    3.20000
--------------------------------------------------------------------------------

  EDIP Twobody Energy :

--------------------------------------------------------------------------------
Atom  Types   Epsilon     p     B       Beta      Sigma       a       a_prime   
  1     2      (eV)           (Ang)     (Ang)     (Ang)     (Ang)     (Ang)     
--------------------------------------------------------------------------------
C    c C    c   20.090004.000    0.9538    0.0490    1.2570    1.8920    0.1700
--------------------------------------------------------------------------------

  EDIP Threebody Energy (New form) :

--------------------------------------------------------------------------------
 Atom  Types               Lambda0/          Lambda_prime/       Z0/            
  1     2     3            Gamma             Gamma_prime         q              
--------------------------------------------------------------------------------
C    c C    c C    c       79.340000         0.300000         3.615000
                            1.354000         0.936000         3.500000
--------------------------------------------------------------------------------

********************************************************************************
*  Output for configuration   1                                                *
********************************************************************************


  Components of energy : 

--------------------------------------------------------------------------------
  Interatomic potentials     =           0.00000000 eV    
  EDIP force field           =          15.96671938 eV    
  Monopole - monopole (real) =           0.00000000 eV    
  Monopole - monopole (recip)=           0.00000000 eV    
  Monopole - monopole (total)=           0.00000000 eV    
--------------------------------------------------------------------------------
  Total lattice energy       =          15.96671938 eV    
--------------------------------------------------------------------------------
  Total lattice energy       =            1540.5443 kJ/(mole unit cells)
--------------------------------------------------------------------------------


  Number of variables =       15

  Maximum number of calculations  =          1000
  Maximum Hessian update interval =            10
  Maximum step size               =   1.000000000
  Maximum parameter tolerance     =   0.000010000
  Maximum function  tolerance     =   0.000010000
  Maximum gradient  tolerance     =   0.001000000
  Maximum gradient  component     =   0.010000000

  Symmetry not applied to optimisation

  Conjugate gradient optimiser to be used

  Lower half triangular hessian to be used

  Minimiser to switch to BFGS with exact hessian
  When gradient norm is less than     0.500000

  Start of bulk optimisation :

  Cycle:      0 Energy:        15.966719  Gnorm:     67.635782  CPU:    0.010
  Cycle:      1 Energy:       -22.006050  Gnorm:      8.267165  CPU:    0.010
  Cycle:      2 Energy:       -26.135837  Gnorm:      5.186939  CPU:    0.012
  Cycle:      3 Energy:       -26.472106  Gnorm:      3.868452  CPU:    0.013
  Cycle:      4 Energy:       -27.178690  Gnorm:      3.205139  CPU:    0.014
  Cycle:      5 Energy:       -31.901946  Gnorm:      8.838996  CPU:    0.016
  Cycle:      6 Energy:       -32.299739  Gnorm:      8.016689  CPU:    0.018
  Cycle:      7 Energy:       -34.158063  Gnorm:      4.916051  CPU:    0.019
  Cycle:      8 Energy:       -35.505967  Gnorm:      2.505149  CPU:    0.020
  Cycle:      9 Energy:       -35.967220  Gnorm:      2.214489  CPU:    0.022
  Cycle:     10 Energy:       -36.102573  Gnorm:      1.165112  CPU:    0.023
  Cycle:     11 Energy:       -36.235058  Gnorm:      1.879632  CPU:    0.025
  Cycle:     12 Energy:       -36.467133  Gnorm:      1.482932  CPU:    0.026
  Cycle:     13 Energy:       -36.595973  Gnorm:      1.016231  CPU:    0.027
  Cycle:     14 Energy:       -36.744336  Gnorm:      1.879827  CPU:    0.029
  Cycle:     15 Energy:       -36.936881  Gnorm:      1.625173  CPU:    0.030
  Cycle:     16 Energy:       -37.096890  Gnorm:      1.504348  CPU:    0.031
  Cycle:     17 Energy:       -37.230874  Gnorm:      1.718649  CPU:    0.032
  Cycle:     18 Energy:       -37.363878  Gnorm:      1.022756  CPU:    0.033
  Cycle:     19 Energy:       -37.447669  Gnorm:      1.273128  CPU:    0.034
  Cycle:     20 Energy:       -37.507648  Gnorm:      0.877320  CPU:    0.035
  Cycle:     21 Energy:       -37.546794  Gnorm:      0.735118  CPU:    0.036
  Cycle:     22 Energy:       -37.578938  Gnorm:      0.808659  CPU:    0.038
  Cycle:     23 Energy:       -37.602072  Gnorm:      0.663954  CPU:    0.039
  Cycle:     24 Energy:       -37.743912  Gnorm:      1.740762  CPU:    0.041
  Cycle:     25 Energy:       -37.945433  Gnorm:      1.370022  CPU:    0.042
  Cycle:     26 Energy:       -38.001695  Gnorm:      0.997488  CPU:    0.043
  Cycle:     27 Energy:       -38.042992  Gnorm:      0.761228  CPU:    0.044
  Cycle:     28 Energy:       -38.063753  Gnorm:      0.494743  CPU:    0.045


!!!!!!!!!!!!!!!!!!!!!!!!!!!!!!!!!!!!!!!!!!!!!!!!!!!!!!!!!!!!!!!!!!!!!!!!!!!!!!!!
!! WARNING : ill conditioned Hessian - using diagonal elements only
!!!!!!!!!!!!!!!!!!!!!!!!!!!!!!!!!!!!!!!!!!!!!!!!!!!!!!!!!!!!!!!!!!!!!!!!!!!!!!!!

  ** Hessian calculated **
  Cycle:     29 Energy:       -38.070465  Gnorm:      0.301271  CPU:    0.047
  Cycle:     30 Energy:       -38.077415  Gnorm:      0.301505  CPU:    0.049
  Cycle:     31 Energy:       -38.082322  Gnorm:      0.352297  CPU:    0.050
  Cycle:     32 Energy:       -38.087828  Gnorm:      0.250787  CPU:    0.051
  Cycle:     33 Energy:       -38.091823  Gnorm:      0.233114  CPU:    0.052
  Cycle:     34 Energy:       -38.108869  Gnorm:      0.483381  CPU:    0.054
  Cycle:     35 Energy:       -38.121870  Gnorm:      0.344390  CPU:    0.055
  Cycle:     36 Energy:       -38.127292  Gnorm:      0.259892  CPU:    0.056
  Cycle:     37 Energy:       -38.127390  Gnorm:      0.248669  CPU:    0.057


!!!!!!!!!!!!!!!!!!!!!!!!!!!!!!!!!!!!!!!!!!!!!!!!!!!!!!!!!!!!!!!!!!!!!!!!!!!!!!!!
!! WARNING : ill conditioned Hessian - using diagonal elements only
!!!!!!!!!!!!!!!!!!!!!!!!!!!!!!!!!!!!!!!!!!!!!!!!!!!!!!!!!!!!!!!!!!!!!!!!!!!!!!!!

  ** Hessian calculated **
  Cycle:     38 Energy:       -38.127390  Gnorm:      0.248669  CPU:    0.060


!!!!!!!!!!!!!!!!!!!!!!!!!!!!!!!!!!!!!!!!!!!!!!!!!!!!!!!!!!!!!!!!!!!!!!!!!!!!!!!!
!! WARNING : ill conditioned Hessian - using diagonal elements only
!!!!!!!!!!!!!!!!!!!!!!!!!!!!!!!!!!!!!!!!!!!!!!!!!!!!!!!!!!!!!!!!!!!!!!!!!!!!!!!!

  ** Hessian calculated **


  **** Conditions for a minimum have not been satisfied. However ****
  **** no lower point can be found - treat results with caution  ****
  **** unless gradient norm is small (less than 0.1)             ****


  Final energy =     -38.12738971 eV      
  Final Gnorm  =       0.24866925

  Components of energy : 

--------------------------------------------------------------------------------
  Interatomic potentials     =           0.00000000 eV    
  EDIP force field           =         -38.12738971 eV    
  Monopole - monopole (real) =           0.00000000 eV    
  Monopole - monopole (recip)=           0.00000000 eV    
  Monopole - monopole (total)=           0.00000000 eV    
--------------------------------------------------------------------------------
  Total lattice energy       =         -38.12738971 eV    
--------------------------------------------------------------------------------
  Total lattice energy       =           -3678.7103 kJ/(mole unit cells)
--------------------------------------------------------------------------------

  Final fractional coordinates of atoms :

--------------------------------------------------------------------------------
   No.  Atomic        x           y          z          Radius
        Label       (Frac)      (Frac)     (Frac)       (Angs) 
--------------------------------------------------------------------------------
     1  C     c     0.889301    0.461685    0.500000    0.000000
     2  C     c     0.245290    0.561576    0.500000    0.000000
     3  C     c     0.533872    0.061356    0.500000    0.000000
     4  C     c     0.890242    0.962111    0.500000    0.000000
     5  C     c     0.246593    0.861574    0.500000    0.000000
     6  C     c     0.532727    0.361745    0.500000    0.000000
--------------------------------------------------------------------------------

  Final internal derivatives :

--------------------------------------------------------------------------------
   No.  Atomic          a             b             c           Radius
        Label          (eV)          (eV)          (eV)        (eV/Angs)
--------------------------------------------------------------------------------
      1 C     c       0.000000      0.000000      0.000000      0.000000
      2 C     c       0.047675     -1.091598      0.000000      0.000000
      3 C     c      -0.581225     -1.689336      0.000000      0.000000
      4 C     c      -0.015824     -0.101783      0.000000      0.000000
      5 C     c       1.219518      1.688050      0.000000      0.000000
      6 C     c      -1.233014      1.913108      0.000000      0.000000
--------------------------------------------------------------------------------
  Maximum abs         1.233014      1.913108      0.000000      0.000000
--------------------------------------------------------------------------------


  Time to end of optimisation =       0.0645 seconds


  Peak dynamic memory used =       1.80 MB 


  Timing analysis for GULP :

--------------------------------------------------------------------------------
  Task / Subroutine                                          Time (Seconds)
--------------------------------------------------------------------------------
  Calculation of EDIP energy and derivatives                      0.0497
--------------------------------------------------------------------------------
  Total CPU time                                                  0.0645
--------------------------------------------------------------------------------


  Job Finished at 16:04.59  3rd June       2024                               

