********************************************************************************
*                       GENERAL UTILITY LATTICE PROGRAM                        *
*                                 Julian Gale                                  *
*                       Curtin Institute for Computation                       *
*                    School of Molecular and Life Sciences                     *
*                    Curtin University, Western Australia                      *
********************************************************************************
* Version = 6.0.0 * Last modified =  12th July 2021                            *
********************************************************************************
*  optimise     - perform optimisation run                                     *
*  conp         - constant pressure calculation                                *
*  nosymmetry   - turn off symmetry after initial structure generation         *
*  conjugate    - use conjugate gradients minimiser                            *
********************************************************************************

  Job Started  at 15:45.21 11th June       2024                               

  Number of CPUs =     1


  Total number of configurations input =      1

********************************************************************************
*  Input for Configuration =   1                                               *
********************************************************************************

  Formula = Al8Mg4O16                                                   

  Number of irreducible atoms/shells =      28


  Total number atoms/shells =      28

  Dimensionality = 3               :  Bulk   



  Cartesian lattice vectors (Angstroms) :

        7.761864    0.000000    0.000000
        0.000000    5.673806    0.000000
        0.000000    0.000000    8.918110

  Cell parameters (Angstroms/Degrees):

  a =       7.7619    alpha =  90.0000
  b =       5.6738    beta  =  90.0000
  c =       8.9181    gamma =  90.0000

  Initial cell volume =         392.747424 Angs**3

  Temperature of configuration =   0.00     K 

  Pressure of configuration =       100.000 GPa 

  Fractional coordinates of asymmetric unit :

--------------------------------------------------------------------------------
   No.  Atomic       x           y          z         Charge      Occupancy
        Label      (Frac)      (Frac)     (Frac)        (e)         (Frac)  
--------------------------------------------------------------------------------
      1 Al    c    0.946737    0.247328    0.170906     3.00000    1.000000    
      2 Al    c    0.553263 *  0.752672 *  0.670906 *   3.00000    1.000000    
      3 Al    c    0.053263 *  0.747328 *  0.329094 *   3.00000    1.000000    
      4 Al    c    0.446737 *  0.252672 *  0.829094 *   3.00000    1.000000    
      5 Al    c    0.065976 *  0.886970 *  0.522992 *   3.00000    1.000000    
      6 Al    c    0.434024 *  0.113030 *  0.022992 *   3.00000    1.000000    
      7 Al    c    0.934024 *  0.386970 *  0.977008 *   3.00000    1.000000    
      8 Al    c    0.565976 *  0.613030 *  0.477008 *   3.00000    1.000000    
      9 Mg    c    0.705523 *  0.396006 *  0.213981 *   2.00000    1.000000    
     10 Mg    c    0.794477 *  0.603994 *  0.713981 *   2.00000    1.000000    
     11 Mg    c    0.294477 *  0.896006 *  0.286019 *   2.00000    1.000000    
     12 Mg    c    0.205523 *  0.103994 *  0.786019 *   2.00000    1.000000    
     13 O     c    0.614608 *  0.954932 *  0.006736 *  -2.00000    1.000000    
     14 O     c    0.885392 *  0.045068 *  0.506736 *  -2.00000    1.000000    
     15 O     c    0.385392 *  0.454932 *  0.493264 *  -2.00000    1.000000    
     16 O     c    0.114608 *  0.545068 *  0.993264 *  -2.00000    1.000000    
     17 O     c    0.413152 *  0.969390 *  0.439102 *  -2.00000    1.000000    
     18 O     c    0.086848 *  0.030610 *  0.939102 *  -2.00000    1.000000    
     19 O     c    0.586848 *  0.469390 *  0.060898 *  -2.00000    1.000000    
     20 O     c    0.913152 *  0.530610 *  0.560898 *  -2.00000    1.000000    
     21 O     c    0.982845 *  0.600660 *  0.446610 *  -2.00000    1.000000    
     22 O     c    0.517155 *  0.399340 *  0.946610 *  -2.00000    1.000000    
     23 O     c    0.017155 *  0.100660 *  0.053390 *  -2.00000    1.000000    
     24 O     c    0.482845 *  0.899340 *  0.553390 *  -2.00000    1.000000    
     25 O     c    0.690225 *  0.335189 *  0.040869 *  -2.00000    1.000000    
     26 O     c    0.809775 *  0.664811 *  0.540869 *  -2.00000    1.000000    
     27 O     c    0.309775 *  0.835189 *  0.459131 *  -2.00000    1.000000    
     28 O     c    0.190225 *  0.164811 *  0.959131 *  -2.00000    1.000000    
--------------------------------------------------------------------------------



********************************************************************************
*  General input information                                                   *
********************************************************************************

  Species output for all configurations : 

--------------------------------------------------------------------------------
  Species    Type    Atomic    Atomic    Charge       Radii (Angs)     Library
                     Number     Mass       (e)     Cova   Ionic  VDW   Symbol
--------------------------------------------------------------------------------
    Mg       Core       12      24.31   2.000000   1.100  0.000  1.640          
    Al       Core       13      26.98   3.000000   1.350  0.000  2.050          
    O        Core        8      16.00  -2.000000   0.730  0.000  1.360          
--------------------------------------------------------------------------------


  Lattice summation method               =    Ewald          (3-D)
                                         =    Parry          (2-D)
                                         =    Saunders et al (1-D)
  Accuracy factor for lattice sums       =   12.000


  Analytic derivatives to be used

  Time limit = Infinity

  Maximum range for interatomic potentials =    100000.000000 Angstroms

  General interatomic potentials :

--------------------------------------------------------------------------------
Atom  Types   Potential      Parameter       Value         Units   Cutoffs(Ang)
  1     2                                                            Min /  Max 
--------------------------------------------------------------------------------
O    c Mg   c Lennard       Lennard-Jones A  1.5000000    eV*Ang^m  0.000  6.000
                            Lennard-Jones B  0.0000000    eV*Ang^n  
                            Exponent m        12          None
                            Exponent n         6          None
--------------------------------------------------------------------------------
O    c Al   c Lennard       Lennard-Jones A  1.5000000    eV*Ang^m  0.000  6.000
                            Lennard-Jones B  0.0000000    eV*Ang^n  
                            Exponent m        12          None
                            Exponent n         6          None
--------------------------------------------------------------------------------
O    c O    c Lennard       Lennard-Jones A  1.5000000    eV*Ang^m  0.000  6.000
                            Lennard-Jones B  0.0000000    eV*Ang^n  
                            Exponent m        12          None
                            Exponent n         6          None
--------------------------------------------------------------------------------
Mg   c Mg   c Lennard       Lennard-Jones A  1.5000000    eV*Ang^m  0.000  6.000
                            Lennard-Jones B  0.0000000    eV*Ang^n  
                            Exponent m        12          None
                            Exponent n         6          None
--------------------------------------------------------------------------------
Mg   c Al   c Lennard       Lennard-Jones A  1.5000000    eV*Ang^m  0.000  6.000
                            Lennard-Jones B  0.0000000    eV*Ang^n  
                            Exponent m        12          None
                            Exponent n         6          None
--------------------------------------------------------------------------------
Al   c Al   c Lennard       Lennard-Jones A  1.5000000    eV*Ang^m  0.000  6.000
                            Lennard-Jones B  0.0000000    eV*Ang^n  
                            Exponent m        12          None
                            Exponent n         6          None
--------------------------------------------------------------------------------
O    c Mg   c Buckingham    Buckingham A     1428.5000    eV        0.000  7.000
                            Buckingham rho  0.29450000    Ang       
                            Buckingham C     0.0000000    eV*Ang^6  
--------------------------------------------------------------------------------
O    c Al   c Buckingham    Buckingham A     1114.9000    eV        0.000  7.000
                            Buckingham rho  0.31180000    Ang       
                            Buckingham C     0.0000000    eV*Ang^6  
--------------------------------------------------------------------------------
O    c O    c Buckingham    Buckingham A     2023.8000    eV        0.000  7.000
                            Buckingham rho  0.26740000    Ang       
                            Buckingham C     0.0000000    eV*Ang^6  
--------------------------------------------------------------------------------

********************************************************************************
*  Output for configuration   1                                                *
********************************************************************************


  Components of enthalpy : 

--------------------------------------------------------------------------------
  Interatomic potentials     =         368.64588640 eV    
  Monopole - monopole (real) =        -175.16673636 eV    
  Monopole - monopole (recip)=        -389.41918749 eV    
  Monopole - monopole (total)=        -564.58592385 eV    
  Pressure*volume            =         245.13176877 eV    
--------------------------------------------------------------------------------
  Total lattice enthalpy     =          49.19173131 eV    
--------------------------------------------------------------------------------
  Total lattice enthalpy     =            4746.2501 kJ/(mole unit cells)
--------------------------------------------------------------------------------


  Number of variables =       87

  Maximum number of calculations  =           850
  Maximum Hessian update interval =            10
  Maximum step size               =   1.000000000
  Maximum parameter tolerance     =   0.000010000
  Maximum function  tolerance     =   0.000010000
  Maximum gradient  tolerance     =   0.001000000
  Maximum gradient  component     =   0.010000000

  Cell parameters to be optimised using strains

  Conjugate gradient optimiser to be used

  Lower half triangular hessian to be used

  Minimiser to switch to RFO
  When gradient norm is less than     0.010000

  Start of bulk optimisation :

  Cycle:      0 Energy:        49.191731  Gnorm:     53.066695  CPU:    0.032
  Cycle:      1 Energy:      -300.970494  Gnorm:     14.617214  CPU:    0.099
  Cycle:      2 Energy:      -349.178201  Gnorm:      9.001853  CPU:    0.145
  Cycle:      3 Energy:      -442.862535  Gnorm:     11.362147  CPU:    0.193
  Cycle:      4 Energy:      -530.529727  Gnorm:      4.114742  CPU:    0.238
  Cycle:      5 Energy:      -558.653561  Gnorm:      2.968328  CPU:    0.283
  Cycle:      6 Energy:      -573.750482  Gnorm:      2.645217  CPU:    0.329
  Cycle:      7 Energy:      -588.330367  Gnorm:      2.938071  CPU:    0.374
  Cycle:      8 Energy:      -599.530552  Gnorm:      2.042345  CPU:    0.411
  Cycle:      9 Energy:      -608.119421  Gnorm:      1.604512  CPU:    0.457
  Cycle:     10 Energy:      -611.197249  Gnorm:      1.089920  CPU:    0.495
  Cycle:     11 Energy:      -614.294045  Gnorm:      1.189836  CPU:    0.541
  Cycle:     12 Energy:      -617.063432  Gnorm:      1.095230  CPU:    0.579
  Cycle:     13 Energy:      -619.427210  Gnorm:      1.078401  CPU:    0.625
  Cycle:     14 Energy:      -622.038994  Gnorm:      1.002228  CPU:    0.672
  Cycle:     15 Energy:      -623.835060  Gnorm:      0.953631  CPU:    0.710
  Cycle:     16 Energy:      -625.467802  Gnorm:      0.761564  CPU:    0.757
  Cycle:     17 Energy:      -626.960671  Gnorm:      0.892761  CPU:    0.804
  Cycle:     18 Energy:      -628.389608  Gnorm:      0.872519  CPU:    0.842
  Cycle:     19 Energy:      -629.893019  Gnorm:      0.686697  CPU:    0.888
  Cycle:     20 Energy:      -630.763678  Gnorm:      0.650448  CPU:    0.936
  Cycle:     21 Energy:      -631.516725  Gnorm:      0.541983  CPU:    0.982
  Cycle:     22 Energy:      -632.047179  Gnorm:      0.469220  CPU:    1.028
  Cycle:     23 Energy:      -632.771725  Gnorm:      0.450482  CPU:    1.076
  Cycle:     24 Energy:      -633.300105  Gnorm:      0.429261  CPU:    1.114
  Cycle:     25 Energy:      -633.658362  Gnorm:      0.443999  CPU:    1.171
  Cycle:     26 Energy:      -634.103670  Gnorm:      0.496221  CPU:    1.262
  Cycle:     27 Energy:      -634.735709  Gnorm:      0.496761  CPU:    1.353
  Cycle:     28 Energy:      -635.579241  Gnorm:      0.498251  CPU:    1.445
  Cycle:     29 Energy:      -636.195265  Gnorm:      0.460481  CPU:    1.520
  Cycle:     30 Energy:      -636.418303  Gnorm:      0.309799  CPU:    1.594
  Cycle:     31 Energy:      -636.736690  Gnorm:      0.277777  CPU:    1.686
  Cycle:     32 Energy:      -636.914989  Gnorm:      0.260263  CPU:    1.744
  Cycle:     33 Energy:      -637.070677  Gnorm:      0.222365  CPU:    1.808
  Cycle:     34 Energy:      -637.227857  Gnorm:      0.309464  CPU:    1.860
  Cycle:     35 Energy:      -637.434624  Gnorm:      0.353866  CPU:    1.906
  Cycle:     36 Energy:      -637.899157  Gnorm:      0.501468  CPU:    1.952
  Cycle:     37 Energy:      -638.340568  Gnorm:      0.510797  CPU:    2.005
  Cycle:     38 Energy:      -638.933089  Gnorm:      0.494564  CPU:    2.073
  Cycle:     39 Energy:      -639.554861  Gnorm:      0.599184  CPU:    2.139
  Cycle:     40 Energy:      -639.909655  Gnorm:      0.357060  CPU:    2.193
  Cycle:     41 Energy:      -640.167977  Gnorm:      0.329242  CPU:    2.258
  Cycle:     42 Energy:      -640.787834  Gnorm:      0.536447  CPU:    2.325
  Cycle:     43 Energy:      -641.293215  Gnorm:      0.457246  CPU:    2.396
  Cycle:     44 Energy:      -641.626739  Gnorm:      0.337651  CPU:    2.475
  Cycle:     45 Energy:      -641.870591  Gnorm:      0.286354  CPU:    2.569
  Cycle:     46 Energy:      -642.142657  Gnorm:      0.302393  CPU:    2.666
  Cycle:     47 Energy:      -642.411260  Gnorm:      0.342945  CPU:    2.743
  Cycle:     48 Energy:      -642.666139  Gnorm:      0.362102  CPU:    2.821
  Cycle:     49 Energy:      -643.009400  Gnorm:      0.380340  CPU:    2.915
  Cycle:     50 Energy:      -643.223015  Gnorm:      0.293556  CPU:    2.993
  Cycle:     51 Energy:      -643.433458  Gnorm:      0.282074  CPU:    3.088
  Cycle:     52 Energy:      -643.653951  Gnorm:      0.319714  CPU:    3.181
  Cycle:     53 Energy:      -644.012883  Gnorm:      0.352275  CPU:    3.258
  Cycle:     54 Energy:      -644.353792  Gnorm:      0.349721  CPU:    3.310
  Cycle:     55 Energy:      -644.581233  Gnorm:      0.292438  CPU:    3.365
  Cycle:     56 Energy:      -644.797153  Gnorm:      0.207033  CPU:    3.428
  Cycle:     57 Energy:      -644.865485  Gnorm:      0.181196  CPU:    3.483
  Cycle:     58 Energy:      -644.949476  Gnorm:      0.133156  CPU:    3.546
  Cycle:     59 Energy:      -644.994383  Gnorm:      0.123432  CPU:    3.612
  Cycle:     60 Energy:      -645.012408  Gnorm:      0.083886  CPU:    3.663
  Cycle:     61 Energy:      -645.037115  Gnorm:      0.084468  CPU:    3.729
  Cycle:     62 Energy:      -645.051146  Gnorm:      0.080695  CPU:    3.781
  Cycle:     63 Energy:      -645.070855  Gnorm:      0.088173  CPU:    3.849
  Cycle:     64 Energy:      -645.097286  Gnorm:      0.089828  CPU:    3.912
  Cycle:     65 Energy:      -645.121087  Gnorm:      0.096483  CPU:    3.967
  Cycle:     66 Energy:      -645.149381  Gnorm:      0.090946  CPU:    4.029
  Cycle:     67 Energy:      -645.183768  Gnorm:      0.125724  CPU:    4.096
  Cycle:     68 Energy:      -645.231738  Gnorm:      0.136529  CPU:    4.159
  Cycle:     69 Energy:      -645.280532  Gnorm:      0.144284  CPU:    4.214
  Cycle:     70 Energy:      -645.303434  Gnorm:      0.092590  CPU:    4.266
  Cycle:     71 Energy:      -645.333025  Gnorm:      0.093046  CPU:    4.332
  Cycle:     72 Energy:      -645.357221  Gnorm:      0.081304  CPU:    4.384
  Cycle:     73 Energy:      -645.374327  Gnorm:      0.081035  CPU:    4.451
  Cycle:     74 Energy:      -645.390525  Gnorm:      0.061304  CPU:    4.502
  Cycle:     75 Energy:      -645.399650  Gnorm:      0.063346  CPU:    4.569
  Cycle:     76 Energy:      -645.408025  Gnorm:      0.053812  CPU:    4.622
  Cycle:     77 Energy:      -645.417944  Gnorm:      0.064374  CPU:    4.685
  Cycle:     78 Energy:      -645.429968  Gnorm:      0.071751  CPU:    4.748
  Cycle:     79 Energy:      -645.446740  Gnorm:      0.074639  CPU:    4.811
  Cycle:     80 Energy:      -645.457283  Gnorm:      0.058685  CPU:    4.862
  Cycle:     81 Energy:      -645.466037  Gnorm:      0.053365  CPU:    4.925
  Cycle:     82 Energy:      -645.473231  Gnorm:      0.045075  CPU:    4.988
  Cycle:     83 Energy:      -645.479477  Gnorm:      0.050826  CPU:    5.051
  Cycle:     84 Energy:      -645.485443  Gnorm:      0.048734  CPU:    5.103
  Cycle:     85 Energy:      -645.494137  Gnorm:      0.063465  CPU:    5.166
  Cycle:     86 Energy:      -645.504584  Gnorm:      0.061051  CPU:    5.218
  Cycle:     87 Energy:      -645.516156  Gnorm:      0.062187  CPU:    5.269
  Cycle:     88 Energy:      -645.526230  Gnorm:      0.061081  CPU:    5.321
  Cycle:     89 Energy:      -645.534695  Gnorm:      0.063873  CPU:    5.372
  Cycle:     90 Energy:      -645.540937  Gnorm:      0.050900  CPU:    5.424
  Cycle:     91 Energy:      -645.547006  Gnorm:      0.047381  CPU:    5.488
  Cycle:     92 Energy:      -645.553861  Gnorm:      0.049443  CPU:    5.539
  Cycle:     93 Energy:      -645.561723  Gnorm:      0.055192  CPU:    5.602
  Cycle:     94 Energy:      -645.568927  Gnorm:      0.042509  CPU:    5.654
  Cycle:     95 Energy:      -645.574667  Gnorm:      0.048552  CPU:    5.716
  Cycle:     96 Energy:      -645.579558  Gnorm:      0.047020  CPU:    5.768
  Cycle:     97 Energy:      -645.591905  Gnorm:      0.069865  CPU:    5.831
  Cycle:     98 Energy:      -645.605706  Gnorm:      0.084074  CPU:    5.882
  Cycle:     99 Energy:      -645.628089  Gnorm:      0.113562  CPU:    5.934
  Cycle:    100 Energy:      -645.643670  Gnorm:      0.071627  CPU:    5.985
  Cycle:    101 Energy:      -645.661458  Gnorm:      0.078552  CPU:    6.048
  Cycle:    102 Energy:      -645.678101  Gnorm:      0.069233  CPU:    6.099
  Cycle:    103 Energy:      -645.686597  Gnorm:      0.064015  CPU:    6.150
  Cycle:    104 Energy:      -645.707066  Gnorm:      0.091490  CPU:    6.213
  Cycle:    105 Energy:      -645.741087  Gnorm:      0.139683  CPU:    6.276
  Cycle:    106 Energy:      -645.799584  Gnorm:      0.151968  CPU:    6.328
  Cycle:    107 Energy:      -645.855467  Gnorm:      0.148138  CPU:    6.380
  Cycle:    108 Energy:      -645.906783  Gnorm:      0.150034  CPU:    6.431
  Cycle:    109 Energy:      -645.953905  Gnorm:      0.140628  CPU:    6.483
  Cycle:    110 Energy:      -645.998183  Gnorm:      0.148872  CPU:    6.546
  Cycle:    111 Energy:      -646.064689  Gnorm:      0.139043  CPU:    6.608
  Cycle:    112 Energy:      -646.123956  Gnorm:      0.168447  CPU:    6.671
  Cycle:    113 Energy:      -646.179019  Gnorm:      0.134721  CPU:    6.723
  Cycle:    114 Energy:      -646.228849  Gnorm:      0.105739  CPU:    6.785
  Cycle:    115 Energy:      -646.258769  Gnorm:      0.105919  CPU:    6.848
  Cycle:    116 Energy:      -646.280229  Gnorm:      0.095495  CPU:    6.899
  Cycle:    117 Energy:      -646.309523  Gnorm:      0.096873  CPU:    6.961
  Cycle:    118 Energy:      -646.331493  Gnorm:      0.108291  CPU:    7.013
  Cycle:    119 Energy:      -646.363064  Gnorm:      0.092926  CPU:    7.075
  Cycle:    120 Energy:      -646.378861  Gnorm:      0.077925  CPU:    7.126
  Cycle:    121 Energy:      -646.391344  Gnorm:      0.070969  CPU:    7.189
  Cycle:    122 Energy:      -646.404262  Gnorm:      0.055232  CPU:    7.251
  Cycle:    123 Energy:      -646.410690  Gnorm:      0.055907  CPU:    7.302
  Cycle:    124 Energy:      -646.420934  Gnorm:      0.056485  CPU:    7.365
  Cycle:    125 Energy:      -646.432891  Gnorm:      0.070228  CPU:    7.427
  Cycle:    126 Energy:      -646.445245  Gnorm:      0.072797  CPU:    7.479
  Cycle:    127 Energy:      -646.457899  Gnorm:      0.065367  CPU:    7.530
  Cycle:    128 Energy:      -646.469761  Gnorm:      0.071027  CPU:    7.581
  Cycle:    129 Energy:      -646.481980  Gnorm:      0.061876  CPU:    7.633
  Cycle:    130 Energy:      -646.489960  Gnorm:      0.051162  CPU:    7.684
  Cycle:    131 Energy:      -646.495658  Gnorm:      0.044301  CPU:    7.735
  Cycle:    132 Energy:      -646.500883  Gnorm:      0.044605  CPU:    7.798
  Cycle:    133 Energy:      -646.505680  Gnorm:      0.046613  CPU:    7.849
  Cycle:    134 Energy:      -646.511352  Gnorm:      0.041848  CPU:    7.912
  Cycle:    135 Energy:      -646.517663  Gnorm:      0.042987  CPU:    7.975
  Cycle:    136 Energy:      -646.521877  Gnorm:      0.046484  CPU:    8.026
  Cycle:    137 Energy:      -646.529089  Gnorm:      0.047982  CPU:    8.089
  Cycle:    138 Energy:      -646.535120  Gnorm:      0.056213  CPU:    8.140
  Cycle:    139 Energy:      -646.543160  Gnorm:      0.063335  CPU:    8.203
  Cycle:    140 Energy:      -646.550356  Gnorm:      0.046580  CPU:    8.254
  Cycle:    141 Energy:      -646.555106  Gnorm:      0.047387  CPU:    8.316
  Cycle:    142 Energy:      -646.560952  Gnorm:      0.039889  CPU:    8.368
  Cycle:    143 Energy:      -646.565423  Gnorm:      0.046358  CPU:    8.430
  Cycle:    144 Energy:      -646.570981  Gnorm:      0.046375  CPU:    8.493
  Cycle:    145 Energy:      -646.583200  Gnorm:      0.066999  CPU:    8.556
  Cycle:    146 Energy:      -646.597261  Gnorm:      0.088207  CPU:    8.607
  Cycle:    147 Energy:      -646.616277  Gnorm:      0.099525  CPU:    8.659
  Cycle:    148 Energy:      -646.652115  Gnorm:      0.131885  CPU:    8.722
  Cycle:    149 Energy:      -646.687550  Gnorm:      0.134436  CPU:    8.774
  Cycle:    150 Energy:      -646.737354  Gnorm:      0.119905  CPU:    8.837
  Cycle:    151 Energy:      -646.768461  Gnorm:      0.103688  CPU:    8.888
  Cycle:    152 Energy:      -646.801014  Gnorm:      0.109595  CPU:    8.951
  Cycle:    153 Energy:      -646.829798  Gnorm:      0.128767  CPU:    9.003
  Cycle:    154 Energy:      -646.878191  Gnorm:      0.127997  CPU:    9.066
  Cycle:    155 Energy:      -646.936106  Gnorm:      0.115659  CPU:    9.128
  Cycle:    156 Energy:      -646.988352  Gnorm:      0.145571  CPU:    9.191
  Cycle:    157 Energy:      -647.028046  Gnorm:      0.113099  CPU:    9.243
  Cycle:    158 Energy:      -647.080806  Gnorm:      0.140787  CPU:    9.306
  Cycle:    159 Energy:      -647.157936  Gnorm:      0.162771  CPU:    9.369
  Cycle:    160 Energy:      -647.187189  Gnorm:      0.107947  CPU:    9.421
  Cycle:    161 Energy:      -647.222820  Gnorm:      0.094244  CPU:    9.485
  Cycle:    162 Energy:      -647.240036  Gnorm:      0.087091  CPU:    9.537
  Cycle:    163 Energy:      -647.257744  Gnorm:      0.061755  CPU:    9.600
  Cycle:    164 Energy:      -647.273531  Gnorm:      0.090162  CPU:    9.663
  Cycle:    165 Energy:      -647.296636  Gnorm:      0.092806  CPU:    9.726
  Cycle:    166 Energy:      -647.320239  Gnorm:      0.108619  CPU:    9.777
  Cycle:    167 Energy:      -647.347064  Gnorm:      0.116568  CPU:    9.840
  Cycle:    168 Energy:      -647.414299  Gnorm:      0.156054  CPU:    9.903
  Cycle:    169 Energy:      -647.507879  Gnorm:      0.223164  CPU:    9.965
  Cycle:    170 Energy:      -647.577714  Gnorm:      0.151605  CPU:   10.028
  Cycle:    171 Energy:      -647.624971  Gnorm:      0.122303  CPU:   10.091
  Cycle:    172 Energy:      -647.660242  Gnorm:      0.120084  CPU:   10.154
  Cycle:    173 Energy:      -647.696512  Gnorm:      0.119797  CPU:   10.217
  Cycle:    174 Energy:      -647.807486  Gnorm:      0.206865  CPU:   10.280
  Cycle:    175 Energy:      -647.957454  Gnorm:      0.304931  CPU:   10.344
  Cycle:    176 Energy:      -648.206982  Gnorm:      0.340342  CPU:   10.395
  Cycle:    177 Energy:      -648.641640  Gnorm:      0.447863  CPU:   10.459
  Cycle:    178 Energy:      -649.066466  Gnorm:      0.395322  CPU:   10.511
  Cycle:    179 Energy:      -649.313620  Gnorm:      0.364822  CPU:   10.563
  Cycle:    180 Energy:      -649.468608  Gnorm:      0.279470  CPU:   10.615
  Cycle:    181 Energy:      -649.721903  Gnorm:      0.245749  CPU:   10.678
  Cycle:    182 Energy:      -649.809034  Gnorm:      0.170672  CPU:   10.730
  Cycle:    183 Energy:      -649.923246  Gnorm:      0.158036  CPU:   10.793
  Cycle:    184 Energy:      -649.991561  Gnorm:      0.167958  CPU:   10.845
  Cycle:    185 Energy:      -650.059747  Gnorm:      0.145433  CPU:   10.897
  Cycle:    186 Energy:      -650.131066  Gnorm:      0.121737  CPU:   10.960
  Cycle:    187 Energy:      -650.197483  Gnorm:      0.127777  CPU:   11.023
  Cycle:    188 Energy:      -650.234822  Gnorm:      0.147193  CPU:   11.075
  Cycle:    189 Energy:      -650.277717  Gnorm:      0.118482  CPU:   11.127
  Cycle:    190 Energy:      -650.301843  Gnorm:      0.098982  CPU:   11.179
  Cycle:    191 Energy:      -650.321053  Gnorm:      0.100676  CPU:   11.242
  Cycle:    192 Energy:      -650.351818  Gnorm:      0.088579  CPU:   11.294
  Cycle:    193 Energy:      -650.386782  Gnorm:      0.096151  CPU:   11.357
  Cycle:    194 Energy:      -650.416978  Gnorm:      0.104059  CPU:   11.409
  Cycle:    195 Energy:      -650.438103  Gnorm:      0.084030  CPU:   11.461
  Cycle:    196 Energy:      -650.466608  Gnorm:      0.087318  CPU:   11.524
  Cycle:    197 Energy:      -650.481284  Gnorm:      0.087846  CPU:   11.575
  Cycle:    198 Energy:      -650.504069  Gnorm:      0.084088  CPU:   11.638
  Cycle:    199 Energy:      -650.522768  Gnorm:      0.089567  CPU:   11.690
  Cycle:    200 Energy:      -650.532919  Gnorm:      0.064427  CPU:   11.742
  Cycle:    201 Energy:      -650.546191  Gnorm:      0.061781  CPU:   11.806
  Cycle:    202 Energy:      -650.552423  Gnorm:      0.054612  CPU:   11.857
  Cycle:    203 Energy:      -650.562061  Gnorm:      0.049211  CPU:   11.921
  Cycle:    204 Energy:      -650.568124  Gnorm:      0.049640  CPU:   11.972
  Cycle:    205 Energy:      -650.573240  Gnorm:      0.044193  CPU:   12.024
  Cycle:    206 Energy:      -650.578388  Gnorm:      0.035513  CPU:   12.087
  Cycle:    207 Energy:      -650.581208  Gnorm:      0.037770  CPU:   12.139
  Cycle:    208 Energy:      -650.584696  Gnorm:      0.029523  CPU:   12.191
  Cycle:    209 Energy:      -650.587382  Gnorm:      0.031182  CPU:   12.243
  Cycle:    210 Energy:      -650.588824  Gnorm:      0.026338  CPU:   12.295
  Cycle:    211 Energy:      -650.590983  Gnorm:      0.026527  CPU:   12.346
  Cycle:    212 Energy:      -650.593283  Gnorm:      0.027966  CPU:   12.399
  Cycle:    213 Energy:      -650.595031  Gnorm:      0.030688  CPU:   12.450
  Cycle:    214 Energy:      -650.597771  Gnorm:      0.027889  CPU:   12.502
  Cycle:    215 Energy:      -650.599475  Gnorm:      0.028072  CPU:   12.554
  Cycle:    216 Energy:      -650.601442  Gnorm:      0.025236  CPU:   12.606
  Cycle:    217 Energy:      -650.603157  Gnorm:      0.024741  CPU:   12.657
  Cycle:    218 Energy:      -650.604483  Gnorm:      0.025090  CPU:   12.709
  Cycle:    219 Energy:      -650.606231  Gnorm:      0.024637  CPU:   12.761
  Cycle:    220 Energy:      -650.607176  Gnorm:      0.021054  CPU:   12.813
  Cycle:    221 Energy:      -650.608237  Gnorm:      0.017671  CPU:   12.864
  Cycle:    222 Energy:      -650.609029  Gnorm:      0.018122  CPU:   12.916
  Cycle:    223 Energy:      -650.609769  Gnorm:      0.016492  CPU:   12.968
  Cycle:    224 Energy:      -650.610481  Gnorm:      0.014852  CPU:   13.020
  Cycle:    225 Energy:      -650.611040  Gnorm:      0.015883  CPU:   13.071
  Cycle:    226 Energy:      -650.611534  Gnorm:      0.011902  CPU:   13.123
  Cycle:    227 Energy:      -650.611886  Gnorm:      0.012445  CPU:   13.174
  Cycle:    228 Energy:      -650.612222  Gnorm:      0.010425  CPU:   13.226
  Cycle:    229 Energy:      -650.612536  Gnorm:      0.010654  CPU:   13.289
  Cycle:    230 Energy:      -650.612731  Gnorm:      0.009711  CPU:   13.341
  ** Hessian has required structure
  Cycle:    231 Energy:      -650.614551  Gnorm:      0.006641  CPU:   13.539
  ** Hessian has required structure
  Cycle:    232 Energy:      -650.615985  Gnorm:      0.002146  CPU:   13.632
  ** Hessian has required structure
  Cycle:    233 Energy:      -650.616114  Gnorm:      0.000299  CPU:   13.702
  ** Hessian has required structure


  **** Optimisation achieved ****


  Final enthalpy =    -650.61611401 eV      
  Final Gnorm    =       0.00002270

  Components of enthalpy : 

--------------------------------------------------------------------------------
  Interatomic potentials     =         227.79356818 eV    
  Monopole - monopole (real) =        -521.25832194 eV    
  Monopole - monopole (recip)=        -487.25623030 eV    
  Monopole - monopole (total)=       -1008.51455223 eV    
  Pressure*volume            =         130.10487004 eV    
--------------------------------------------------------------------------------
  Total lattice enthalpy     =        -650.61611401 eV    
--------------------------------------------------------------------------------
  Total lattice enthalpy     =          -62774.5094 kJ/(mole unit cells)
--------------------------------------------------------------------------------

  Final fractional coordinates of atoms :

--------------------------------------------------------------------------------
   No.  Atomic        x           y          z          Radius
        Label       (Frac)      (Frac)     (Frac)       (Angs) 
--------------------------------------------------------------------------------
     1  Al    c     0.946737    0.247328    0.170906    0.000000
     2  Al    c     0.350693    0.753072    0.824443    0.000000
     3  Al    c     0.735509    0.750323    0.217356    0.000000
     4  Al    c     0.636207    0.246778    0.868348    0.000000
     5  Al    c     0.043101    0.751695    0.520898    0.000000
     6  Al    c     0.449995    0.256615    0.173452    0.000000
     7  Al    c     0.139464    0.256064    0.870893    0.000000
     8  Al    c     0.543101    0.751695    0.520898    0.000000
     9  Mg    c     0.799042    0.254385    0.532928    0.000000
    10  Mg    c     0.853691    0.752569    0.830141    0.000000
    11  Mg    c     0.232511    0.750824    0.211658    0.000000
    12  Mg    c     0.287177    0.249005    0.508885    0.000000
    13  O     c     0.785066    0.951895    0.035877    0.000000
    14  O     c     0.942700    0.057732    0.379653    0.000000
    15  O     c     0.547539    0.570489    0.760505    0.000000
    16  O     c     0.449850    0.448283    0.379826    0.000000
    17  O     c     0.538660    0.932903    0.281291    0.000000
    18  O     c     0.076653    0.928403    0.760938    0.000000
    19  O     c     0.791931    0.652067    0.511630    0.000000
    20  O     c     0.301133    0.551500    0.005919    0.000000
    21  O     c     0.143497    0.445656    0.662142    0.000000
    22  O     c     0.675339    0.409217    0.132064    0.000000
    23  O     c     0.182529    0.137268    0.142819    0.000000
    24  O     c     0.636348    0.055111    0.661970    0.000000
    25  O     c     0.009546    0.574991    0.280857    0.000000
    26  O     c     0.903671    0.366122    0.898975    0.000000
    27  O     c     0.294270    0.851324    0.530169    0.000000
    28  O     c     0.410861    0.094179    0.909731    0.000000
--------------------------------------------------------------------------------

  Final Cartesian lattice vectors (Angstroms) :

        6.663468    0.020782   -0.805160
        0.015261    4.647514   -0.003465
       -0.925238   -0.005715    6.842972


  Final cell parameters and derivatives :

--------------------------------------------------------------------------------
       a            6.711968 Angstrom     dE/de1(xx)     0.000095 eV/strain
       b            4.647540 Angstrom     dE/de2(yy)     0.000158 eV/strain
       c            6.905242 Angstrom     dE/de3(zz)    -0.000026 eV/strain
       alpha       90.114957 Degrees      dE/de4(yz)    -0.000379 eV/strain
       beta       104.590099 Degrees      dE/de5(xz)    -0.000880 eV/strain
       gamma       89.630694 Degrees      dE/de6(xy)     0.000005 eV/strain
--------------------------------------------------------------------------------

  Primitive cell volume =           208.452592 Angs**3

  Density of cell =      4.533379 g/cm**3

  Non-primitive cell volume =           208.452592 Angs**3


  Final internal derivatives :

--------------------------------------------------------------------------------
   No.  Atomic          a             b             c           Radius
        Label          (eV)          (eV)          (eV)        (eV/Angs)
--------------------------------------------------------------------------------
      1 Al    c       0.000000      0.000000      0.000000      0.000000
      2 Al    c      -0.000066      0.000263      0.000037      0.000000
      3 Al    c       0.000087      0.000071     -0.000453      0.000000
      4 Al    c       0.000215      0.000118      0.000054      0.000000
      5 Al    c       0.000424     -0.000190     -0.000016      0.000000
      6 Al    c      -0.000160     -0.000098      0.000423      0.000000
      7 Al    c      -0.000280      0.000161      0.000126      0.000000
      8 Al    c      -0.000130     -0.000102     -0.000013      0.000000
      9 Mg    c       0.000376     -0.000067      0.000091      0.000000
     10 Mg    c       0.000113      0.000050      0.000224      0.000000
     11 Mg    c       0.000002      0.000006      0.000171      0.000000
     12 Mg    c       0.000662     -0.000123      0.000569      0.000000
     13 O     c      -0.000293     -0.000034      0.000150      0.000000
     14 O     c      -0.000115     -0.000022      0.000084      0.000000
     15 O     c       0.000119      0.000031      0.000218      0.000000
     16 O     c       0.000064     -0.000268     -0.000107      0.000000
     17 O     c       0.000098      0.000131      0.000044      0.000000
     18 O     c       0.000120     -0.000028     -0.000084      0.000000
     19 O     c      -0.000057     -0.000062     -0.000040      0.000000
     20 O     c       0.000203      0.000208      0.000015      0.000000
     21 O     c       0.000008     -0.000015     -0.000304      0.000000
     22 O     c      -0.000252      0.000109      0.000037      0.000000
     23 O     c       0.000241     -0.000006     -0.000078      0.000000
     24 O     c      -0.000123     -0.000246      0.000223      0.000000
     25 O     c      -0.000088      0.000045      0.000241      0.000000
     26 O     c       0.000072     -0.000048     -0.000196      0.000000
     27 O     c       0.000004      0.000165      0.000116      0.000000
     28 O     c       0.000157      0.000114      0.000101      0.000000
--------------------------------------------------------------------------------
  Maximum abs         0.000662      0.000268      0.000569      0.000000
--------------------------------------------------------------------------------


  Time to end of optimisation =      13.7729 seconds


  Peak dynamic memory used =       2.03 MB 


  Timing analysis for GULP :

--------------------------------------------------------------------------------
  Task / Subroutine                                          Time (Seconds)
--------------------------------------------------------------------------------
  Calculation of reciprocal space energy and derivatives          0.6802
  Calculation of real space energy and derivatives               12.9547
  Calculation and manipulation of Hessian matrix                  0.0754
  Global summation overhead                                       0.0015
--------------------------------------------------------------------------------
  Total CPU time                                                 13.7730
--------------------------------------------------------------------------------


  Job Finished at 15:45.35 11th June       2024                               

