********************************************************************************
*                       GENERAL UTILITY LATTICE PROGRAM                        *
*                                 Julian Gale                                  *
*                       Curtin Institute for Computation                       *
*                    School of Molecular and Life Sciences                     *
*                    Curtin University, Western Australia                      *
********************************************************************************
* Version = 6.0.0 * Last modified =  12th July 2021                            *
********************************************************************************
*  optimise     - perform optimisation run                                     *
*  conp         - constant pressure calculation                                *
*  nosymmetry   - turn off symmetry after initial structure generation         *
*  conjugate    - use conjugate gradients minimiser                            *
********************************************************************************

  Job Started  at 15:47.41 11th June       2024                               

  Number of CPUs =     1


  Total number of configurations input =      1

********************************************************************************
*  Input for Configuration =   1                                               *
********************************************************************************

  Formula = Al8Mg4O16                                                   

  Number of irreducible atoms/shells =      28


  Total number atoms/shells =      28

  Dimensionality = 3               :  Bulk   



  Cartesian lattice vectors (Angstroms) :

        6.489836    0.000000    0.000000
        0.000000    6.489836    0.000000
        0.000000    0.000000    6.171654

  Cell parameters (Angstroms/Degrees):

  a =       6.4898    alpha =  90.0000
  b =       6.4898    beta  =  90.0000
  c =       6.1717    gamma =  90.0000

  Initial cell volume =         259.937578 Angs**3

  Temperature of configuration =   0.00     K 

  Pressure of configuration =       100.000 GPa 

  Fractional coordinates of asymmetric unit :

--------------------------------------------------------------------------------
   No.  Atomic       x           y          z         Charge      Occupancy
        Label      (Frac)      (Frac)     (Frac)        (e)         (Frac)  
--------------------------------------------------------------------------------
      1 Al    c    0.126594    0.163567    0.026289     3.00000    1.000000    
      2 Al    c    0.873406 *  0.836433 *  0.026289 *   3.00000    1.000000    
      3 Al    c    0.163567 *  0.873406 *  0.973711 *   3.00000    1.000000    
      4 Al    c    0.836433 *  0.126594 *  0.973711 *   3.00000    1.000000    
      5 Al    c    0.373406 *  0.663567 *  0.473711 *   3.00000    1.000000    
      6 Al    c    0.626594 *  0.336433 *  0.473711 *   3.00000    1.000000    
      7 Al    c    0.336433 *  0.373406 *  0.526289 *   3.00000    1.000000    
      8 Al    c    0.663567 *  0.626594 *  0.526289 *   3.00000    1.000000    
      9 Mg    c    0.000000 *  0.000000 *  0.691830 *   2.00000    1.000000    
     10 Mg    c    0.000000 *  0.000000 *  0.308170 *   2.00000    1.000000    
     11 Mg    c    0.500000 *  0.500000 *  0.808170 *   2.00000    1.000000    
     12 Mg    c    0.500000 *  0.500000 *  0.191830 *   2.00000    1.000000    
     13 O     c    0.143410 *  0.014015 *  0.062618 *  -2.00000    1.000000    
     14 O     c    0.856590 *  0.985985 *  0.062618 *  -2.00000    1.000000    
     15 O     c    0.014015 *  0.856590 *  0.937382 *  -2.00000    1.000000    
     16 O     c    0.985985 *  0.143410 *  0.937382 *  -2.00000    1.000000    
     17 O     c    0.356590 *  0.514015 *  0.437382 *  -2.00000    1.000000    
     18 O     c    0.643410 *  0.485985 *  0.437382 *  -2.00000    1.000000    
     19 O     c    0.485985 *  0.356590 *  0.562618 *  -2.00000    1.000000    
     20 O     c    0.514015 *  0.643410 *  0.562618 *  -2.00000    1.000000    
     21 O     c    0.583736 *  0.300169 *  0.815577 *  -2.00000    1.000000    
     22 O     c    0.416264 *  0.699831 *  0.815577 *  -2.00000    1.000000    
     23 O     c    0.300169 *  0.416264 *  0.184423 *  -2.00000    1.000000    
     24 O     c    0.699831 *  0.583736 *  0.184423 *  -2.00000    1.000000    
     25 O     c    0.916264 *  0.800169 *  0.684423 *  -2.00000    1.000000    
     26 O     c    0.083736 *  0.199831 *  0.684423 *  -2.00000    1.000000    
     27 O     c    0.199831 *  0.916264 *  0.315577 *  -2.00000    1.000000    
     28 O     c    0.800169 *  0.083736 *  0.315577 *  -2.00000    1.000000    
--------------------------------------------------------------------------------



********************************************************************************
*  General input information                                                   *
********************************************************************************

  Species output for all configurations : 

--------------------------------------------------------------------------------
  Species    Type    Atomic    Atomic    Charge       Radii (Angs)     Library
                     Number     Mass       (e)     Cova   Ionic  VDW   Symbol
--------------------------------------------------------------------------------
    Mg       Core       12      24.31   2.000000   1.100  0.000  1.640          
    Al       Core       13      26.98   3.000000   1.350  0.000  2.050          
    O        Core        8      16.00  -2.000000   0.730  0.000  1.360          
--------------------------------------------------------------------------------


  Lattice summation method               =    Ewald          (3-D)
                                         =    Parry          (2-D)
                                         =    Saunders et al (1-D)
  Accuracy factor for lattice sums       =   12.000


  Analytic derivatives to be used

  Time limit = Infinity

  Maximum range for interatomic potentials =    100000.000000 Angstroms

  General interatomic potentials :

--------------------------------------------------------------------------------
Atom  Types   Potential      Parameter       Value         Units   Cutoffs(Ang)
  1     2                                                            Min /  Max 
--------------------------------------------------------------------------------
O    c Mg   c Lennard       Lennard-Jones A  1.5000000    eV*Ang^m  0.000  6.000
                            Lennard-Jones B  0.0000000    eV*Ang^n  
                            Exponent m        12          None
                            Exponent n         6          None
--------------------------------------------------------------------------------
O    c Al   c Lennard       Lennard-Jones A  1.5000000    eV*Ang^m  0.000  6.000
                            Lennard-Jones B  0.0000000    eV*Ang^n  
                            Exponent m        12          None
                            Exponent n         6          None
--------------------------------------------------------------------------------
O    c O    c Lennard       Lennard-Jones A  1.5000000    eV*Ang^m  0.000  6.000
                            Lennard-Jones B  0.0000000    eV*Ang^n  
                            Exponent m        12          None
                            Exponent n         6          None
--------------------------------------------------------------------------------
Mg   c Mg   c Lennard       Lennard-Jones A  1.5000000    eV*Ang^m  0.000  6.000
                            Lennard-Jones B  0.0000000    eV*Ang^n  
                            Exponent m        12          None
                            Exponent n         6          None
--------------------------------------------------------------------------------
Mg   c Al   c Lennard       Lennard-Jones A  1.5000000    eV*Ang^m  0.000  6.000
                            Lennard-Jones B  0.0000000    eV*Ang^n  
                            Exponent m        12          None
                            Exponent n         6          None
--------------------------------------------------------------------------------
Al   c Al   c Lennard       Lennard-Jones A  1.5000000    eV*Ang^m  0.000  6.000
                            Lennard-Jones B  0.0000000    eV*Ang^n  
                            Exponent m        12          None
                            Exponent n         6          None
--------------------------------------------------------------------------------
O    c Mg   c Buckingham    Buckingham A     1428.5000    eV        0.000  7.000
                            Buckingham rho  0.29450000    Ang       
                            Buckingham C     0.0000000    eV*Ang^6  
--------------------------------------------------------------------------------
O    c Al   c Buckingham    Buckingham A     1114.9000    eV        0.000  7.000
                            Buckingham rho  0.31180000    Ang       
                            Buckingham C     0.0000000    eV*Ang^6  
--------------------------------------------------------------------------------
O    c O    c Buckingham    Buckingham A     2023.8000    eV        0.000  7.000
                            Buckingham rho  0.26740000    Ang       
                            Buckingham C     0.0000000    eV*Ang^6  
--------------------------------------------------------------------------------

********************************************************************************
*  Output for configuration   1                                                *
********************************************************************************


  Components of enthalpy : 

--------------------------------------------------------------------------------
  Interatomic potentials     =         916.78740873 eV    
  Monopole - monopole (real) =        -780.58512783 eV    
  Monopole - monopole (recip)=        -452.14018200 eV    
  Monopole - monopole (total)=       -1232.72530983 eV    
  Pressure*volume            =         162.23902298 eV    
--------------------------------------------------------------------------------
  Total lattice enthalpy     =        -153.69887813 eV    
--------------------------------------------------------------------------------
  Total lattice enthalpy     =          -14829.5922 kJ/(mole unit cells)
--------------------------------------------------------------------------------


  Number of variables =       87

  Maximum number of calculations  =           850
  Maximum Hessian update interval =            10
  Maximum step size               =   1.000000000
  Maximum parameter tolerance     =   0.000010000
  Maximum function  tolerance     =   0.000010000
  Maximum gradient  tolerance     =   0.001000000
  Maximum gradient  component     =   0.010000000

  Cell parameters to be optimised using strains

  Conjugate gradient optimiser to be used

  Lower half triangular hessian to be used

  Minimiser to switch to RFO
  When gradient norm is less than     0.010000

  Start of bulk optimisation :

  Cycle:      0 Energy:      -153.698878  Gnorm:     35.243139  CPU:    0.031
  Cycle:      1 Energy:      -463.694552  Gnorm:     10.032619  CPU:    0.097
  Cycle:      2 Energy:      -525.687867  Gnorm:      3.162393  CPU:    0.140
  Cycle:      3 Energy:      -540.605251  Gnorm:      3.021550  CPU:    0.187
  Cycle:      4 Energy:      -553.659224  Gnorm:      2.503242  CPU:    0.231
  Cycle:      5 Energy:      -560.626815  Gnorm:      2.175835  CPU:    0.282
  Cycle:      6 Energy:      -569.189063  Gnorm:      2.809054  CPU:    0.326
  Cycle:      7 Energy:      -585.489192  Gnorm:      2.747639  CPU:    0.372
  Cycle:      8 Energy:      -592.951138  Gnorm:      1.796735  CPU:    0.422
  Cycle:      9 Energy:      -598.506088  Gnorm:      1.586019  CPU:    0.465
  Cycle:     10 Energy:      -601.456992  Gnorm:      1.217177  CPU:    0.501
  Cycle:     11 Energy:      -605.419169  Gnorm:      1.551663  CPU:    0.545
  Cycle:     12 Energy:      -610.510645  Gnorm:      1.500508  CPU:    0.588
  Cycle:     13 Energy:      -616.118263  Gnorm:      1.591217  CPU:    0.631
  Cycle:     14 Energy:      -621.130087  Gnorm:      1.224725  CPU:    0.675
  Cycle:     15 Energy:      -623.267200  Gnorm:      1.066865  CPU:    0.726
  Cycle:     16 Energy:      -625.088664  Gnorm:      0.759355  CPU:    0.787
  Cycle:     17 Energy:      -626.299503  Gnorm:      0.586110  CPU:    0.847
  Cycle:     18 Energy:      -627.156463  Gnorm:      0.648768  CPU:    0.934
  Cycle:     19 Energy:      -628.082338  Gnorm:      0.728417  CPU:    1.006
  Cycle:     20 Energy:      -628.721264  Gnorm:      0.597412  CPU:    1.077
  Cycle:     21 Energy:      -629.591136  Gnorm:      0.625786  CPU:    1.165
  Cycle:     22 Energy:      -630.805278  Gnorm:      0.643031  CPU:    1.254
  Cycle:     23 Energy:      -631.516533  Gnorm:      0.609167  CPU:    1.326
  Cycle:     24 Energy:      -632.133813  Gnorm:      0.520869  CPU:    1.399
  Cycle:     25 Energy:      -632.709193  Gnorm:      0.451876  CPU:    1.460
  Cycle:     26 Energy:      -633.162474  Gnorm:      0.413179  CPU:    1.522
  Cycle:     27 Energy:      -633.497450  Gnorm:      0.383756  CPU:    1.573
  Cycle:     28 Energy:      -633.911551  Gnorm:      0.452708  CPU:    1.652
  Cycle:     29 Energy:      -634.405970  Gnorm:      0.464049  CPU:    1.726
  Cycle:     30 Energy:      -634.704865  Gnorm:      0.407369  CPU:    1.800
  Cycle:     31 Energy:      -634.991882  Gnorm:      0.290779  CPU:    1.874
  Cycle:     32 Energy:      -635.470417  Gnorm:      0.395750  CPU:    1.965
  Cycle:     33 Energy:      -635.845877  Gnorm:      0.517292  CPU:    2.038
  Cycle:     34 Energy:      -636.285437  Gnorm:      0.428584  CPU:    2.114
  Cycle:     35 Energy:      -636.680662  Gnorm:      0.374886  CPU:    2.205
  Cycle:     36 Energy:      -636.987173  Gnorm:      0.372639  CPU:    2.295
  Cycle:     37 Energy:      -637.309293  Gnorm:      0.392454  CPU:    2.385
  Cycle:     38 Energy:      -637.661067  Gnorm:      0.434733  CPU:    2.475
  Cycle:     39 Energy:      -638.151132  Gnorm:      0.465886  CPU:    2.564
  Cycle:     40 Energy:      -638.417553  Gnorm:      0.415631  CPU:    2.639
  Cycle:     41 Energy:      -638.747437  Gnorm:      0.347441  CPU:    2.730
  Cycle:     42 Energy:      -639.061142  Gnorm:      0.300830  CPU:    2.822
  Cycle:     43 Energy:      -639.261909  Gnorm:      0.344289  CPU:    2.895
  Cycle:     44 Energy:      -639.494885  Gnorm:      0.337237  CPU:    2.973
  Cycle:     45 Energy:      -639.908581  Gnorm:      0.376255  CPU:    3.063
  Cycle:     46 Energy:      -640.343646  Gnorm:      0.506516  CPU:    3.139
  Cycle:     47 Energy:      -640.700230  Gnorm:      0.489525  CPU:    3.211
  Cycle:     48 Energy:      -641.308316  Gnorm:      0.569225  CPU:    3.285
  Cycle:     49 Energy:      -641.979402  Gnorm:      0.593684  CPU:    3.340
  Cycle:     50 Energy:      -642.330407  Gnorm:      0.491796  CPU:    3.390
  Cycle:     51 Energy:      -642.739852  Gnorm:      0.344769  CPU:    3.456
  Cycle:     52 Energy:      -643.069307  Gnorm:      0.341398  CPU:    3.519
  Cycle:     53 Energy:      -643.252974  Gnorm:      0.361785  CPU:    3.572
  Cycle:     54 Energy:      -643.486159  Gnorm:      0.279839  CPU:    3.634
  Cycle:     55 Energy:      -643.672959  Gnorm:      0.246000  CPU:    3.699
  Cycle:     56 Energy:      -643.837055  Gnorm:      0.316245  CPU:    3.760
  Cycle:     57 Energy:      -643.957582  Gnorm:      0.264171  CPU:    3.814
  Cycle:     58 Energy:      -644.137107  Gnorm:      0.267797  CPU:    3.876
  Cycle:     59 Energy:      -644.279305  Gnorm:      0.299830  CPU:    3.930
  Cycle:     60 Energy:      -644.346057  Gnorm:      0.198375  CPU:    3.981
  Cycle:     61 Energy:      -644.433449  Gnorm:      0.166241  CPU:    4.048
  Cycle:     62 Energy:      -644.512427  Gnorm:      0.204201  CPU:    4.109
  Cycle:     63 Energy:      -644.572059  Gnorm:      0.185091  CPU:    4.163
  Cycle:     64 Energy:      -644.637003  Gnorm:      0.174450  CPU:    4.215
  Cycle:     65 Energy:      -644.723421  Gnorm:      0.184590  CPU:    4.281
  Cycle:     66 Energy:      -644.792652  Gnorm:      0.224262  CPU:    4.332
  Cycle:     67 Energy:      -644.865530  Gnorm:      0.190540  CPU:    4.387
  Cycle:     68 Energy:      -644.945448  Gnorm:      0.209746  CPU:    4.449
  Cycle:     69 Energy:      -645.012099  Gnorm:      0.201154  CPU:    4.504
  Cycle:     70 Energy:      -645.051084  Gnorm:      0.159755  CPU:    4.555
  Cycle:     71 Energy:      -645.094446  Gnorm:      0.133601  CPU:    4.620
  Cycle:     72 Energy:      -645.134855  Gnorm:      0.151014  CPU:    4.671
  Cycle:     73 Energy:      -645.162510  Gnorm:      0.133457  CPU:    4.725
  Cycle:     74 Energy:      -645.210419  Gnorm:      0.100800  CPU:    4.789
  Cycle:     75 Energy:      -645.241881  Gnorm:      0.099910  CPU:    4.854
  Cycle:     76 Energy:      -645.266569  Gnorm:      0.114381  CPU:    4.904
  Cycle:     77 Energy:      -645.283724  Gnorm:      0.098421  CPU:    4.959
  Cycle:     78 Energy:      -645.304958  Gnorm:      0.101225  CPU:    5.020
  Cycle:     79 Energy:      -645.346761  Gnorm:      0.167731  CPU:    5.086
  Cycle:     80 Energy:      -645.368008  Gnorm:      0.100590  CPU:    5.148
  Cycle:     81 Energy:      -645.381955  Gnorm:      0.080886  CPU:    5.203
  Cycle:     82 Energy:      -645.397585  Gnorm:      0.076100  CPU:    5.265
  Cycle:     83 Energy:      -645.412714  Gnorm:      0.091749  CPU:    5.328
  Cycle:     84 Energy:      -645.424007  Gnorm:      0.079398  CPU:    5.378
  Cycle:     85 Energy:      -645.438560  Gnorm:      0.079610  CPU:    5.440
  Cycle:     86 Energy:      -645.457565  Gnorm:      0.103322  CPU:    5.502
  Cycle:     87 Energy:      -645.471070  Gnorm:      0.102119  CPU:    5.553
  Cycle:     88 Energy:      -645.493054  Gnorm:      0.095105  CPU:    5.603
  Cycle:     89 Energy:      -645.509100  Gnorm:      0.113401  CPU:    5.654
  Cycle:     90 Energy:      -645.520088  Gnorm:      0.088226  CPU:    5.705
  Cycle:     91 Energy:      -645.536219  Gnorm:      0.085055  CPU:    5.767
  Cycle:     92 Energy:      -645.551667  Gnorm:      0.098001  CPU:    5.829
  Cycle:     93 Energy:      -645.564160  Gnorm:      0.084977  CPU:    5.879
  Cycle:     94 Energy:      -645.579540  Gnorm:      0.073123  CPU:    5.941
  Cycle:     95 Energy:      -645.597111  Gnorm:      0.075708  CPU:    6.004
  Cycle:     96 Energy:      -645.616030  Gnorm:      0.093190  CPU:    6.070
  Cycle:     97 Energy:      -645.638472  Gnorm:      0.098803  CPU:    6.120
  Cycle:     98 Energy:      -645.652714  Gnorm:      0.130079  CPU:    6.171
  Cycle:     99 Energy:      -645.757121  Gnorm:      0.326289  CPU:    6.234
  Cycle:    100 Energy:      -645.891196  Gnorm:      0.197140  CPU:    6.297
  Cycle:    101 Energy:      -645.924222  Gnorm:      0.135460  CPU:    6.349
  Cycle:    102 Energy:      -645.983712  Gnorm:      0.161905  CPU:    6.412
  Cycle:    103 Energy:      -646.026867  Gnorm:      0.192287  CPU:    6.463
  Cycle:    104 Energy:      -646.088563  Gnorm:      0.180175  CPU:    6.527
  Cycle:    105 Energy:      -646.190903  Gnorm:      0.246644  CPU:    6.590
  Cycle:    106 Energy:      -646.397069  Gnorm:      0.439722  CPU:    6.653
  Cycle:    107 Energy:      -646.645996  Gnorm:      0.427336  CPU:    6.706
  Cycle:    108 Energy:      -646.906031  Gnorm:      0.421924  CPU:    6.759
  Cycle:    109 Energy:      -647.143637  Gnorm:      0.310232  CPU:    6.823
  Cycle:    110 Energy:      -647.296047  Gnorm:      0.350138  CPU:    6.888
  Cycle:    111 Energy:      -647.457702  Gnorm:      0.320184  CPU:    6.952
  Cycle:    112 Energy:      -647.660729  Gnorm:      0.281196  CPU:    7.016
  Cycle:    113 Energy:      -647.781221  Gnorm:      0.204226  CPU:    7.069
  Cycle:    114 Energy:      -647.853752  Gnorm:      0.219478  CPU:    7.134
  Cycle:    115 Energy:      -647.909117  Gnorm:      0.167943  CPU:    7.186
  Cycle:    116 Energy:      -647.991543  Gnorm:      0.185997  CPU:    7.251
  Cycle:    117 Energy:      -648.050930  Gnorm:      0.190251  CPU:    7.304
  Cycle:    118 Energy:      -648.107841  Gnorm:      0.183433  CPU:    7.369
  Cycle:    119 Energy:      -648.154352  Gnorm:      0.181301  CPU:    7.423
  Cycle:    120 Energy:      -648.186774  Gnorm:      0.146584  CPU:    7.475
  Cycle:    121 Energy:      -648.218898  Gnorm:      0.152195  CPU:    7.541
  Cycle:    122 Energy:      -648.266703  Gnorm:      0.146965  CPU:    7.605
  Cycle:    123 Energy:      -648.315644  Gnorm:      0.125966  CPU:    7.670
  Cycle:    124 Energy:      -648.361332  Gnorm:      0.163122  CPU:    7.725
  Cycle:    125 Energy:      -648.392479  Gnorm:      0.159812  CPU:    7.782
  Cycle:    126 Energy:      -648.463195  Gnorm:      0.171886  CPU:    7.848
  Cycle:    127 Energy:      -648.527416  Gnorm:      0.215902  CPU:    7.901
  Cycle:    128 Energy:      -648.590690  Gnorm:      0.173158  CPU:    7.954
  Cycle:    129 Energy:      -648.674123  Gnorm:      0.247707  CPU:    8.019
  Cycle:    130 Energy:      -648.723720  Gnorm:      0.186085  CPU:    8.071
  Cycle:    131 Energy:      -648.777900  Gnorm:      0.139147  CPU:    8.136
  Cycle:    132 Energy:      -648.838378  Gnorm:      0.132873  CPU:    8.201
  Cycle:    133 Energy:      -648.866779  Gnorm:      0.114230  CPU:    8.253
  Cycle:    134 Energy:      -648.888189  Gnorm:      0.125586  CPU:    8.308
  Cycle:    135 Energy:      -648.908169  Gnorm:      0.108438  CPU:    8.365
  Cycle:    136 Energy:      -648.937063  Gnorm:      0.087590  CPU:    8.430
  Cycle:    137 Energy:      -648.958793  Gnorm:      0.115732  CPU:    8.497
  Cycle:    138 Energy:      -648.970620  Gnorm:      0.078775  CPU:    8.549
  Cycle:    139 Energy:      -649.003180  Gnorm:      0.145462  CPU:    8.616
  Cycle:    140 Energy:      -649.020664  Gnorm:      0.093010  CPU:    8.669
  Cycle:    141 Energy:      -649.030150  Gnorm:      0.066791  CPU:    8.722
  Cycle:    142 Energy:      -649.049735  Gnorm:      0.084967  CPU:    8.789
  Cycle:    143 Energy:      -649.069172  Gnorm:      0.093577  CPU:    8.841
  Cycle:    144 Energy:      -649.078610  Gnorm:      0.087249  CPU:    8.897
  Cycle:    145 Energy:      -649.094304  Gnorm:      0.089947  CPU:    8.962
  Cycle:    146 Energy:      -649.112716  Gnorm:      0.100237  CPU:    9.014
  Cycle:    147 Energy:      -649.135678  Gnorm:      0.129468  CPU:    9.081
  Cycle:    148 Energy:      -649.155100  Gnorm:      0.116906  CPU:    9.134
  Cycle:    149 Energy:      -649.185971  Gnorm:      0.106565  CPU:    9.199
  Cycle:    150 Energy:      -649.200288  Gnorm:      0.095035  CPU:    9.252
  Cycle:    151 Energy:      -649.212197  Gnorm:      0.093449  CPU:    9.316
  Cycle:    152 Energy:      -649.226857  Gnorm:      0.068243  CPU:    9.368
  Cycle:    153 Energy:      -649.235123  Gnorm:      0.057040  CPU:    9.425
  Cycle:    154 Energy:      -649.244204  Gnorm:      0.052440  CPU:    9.477
  Cycle:    155 Energy:      -649.248418  Gnorm:      0.066118  CPU:    9.530
  Cycle:    156 Energy:      -649.256623  Gnorm:      0.059039  CPU:    9.586
  Cycle:    157 Energy:      -649.264662  Gnorm:      0.043808  CPU:    9.638
  Cycle:    158 Energy:      -649.268944  Gnorm:      0.061787  CPU:    9.691
  Cycle:    159 Energy:      -649.275360  Gnorm:      0.074290  CPU:    9.746
  Cycle:    160 Energy:      -649.280398  Gnorm:      0.055794  CPU:    9.799
  Cycle:    161 Energy:      -649.284031  Gnorm:      0.040751  CPU:    9.852
  Cycle:    162 Energy:      -649.289020  Gnorm:      0.047334  CPU:    9.905
  Cycle:    163 Energy:      -649.293555  Gnorm:      0.052400  CPU:    9.958
  Cycle:    164 Energy:      -649.296736  Gnorm:      0.044635  CPU:   10.010
  Cycle:    165 Energy:      -649.300230  Gnorm:      0.042962  CPU:   10.063
  Cycle:    166 Energy:      -649.304988  Gnorm:      0.041142  CPU:   10.115
  Cycle:    167 Energy:      -649.311566  Gnorm:      0.060254  CPU:   10.179
  Cycle:    168 Energy:      -649.315256  Gnorm:      0.051455  CPU:   10.231
  Cycle:    169 Energy:      -649.319963  Gnorm:      0.049622  CPU:   10.283
  Cycle:    170 Energy:      -649.321900  Gnorm:      0.038632  CPU:   10.335
  Cycle:    171 Energy:      -649.325306  Gnorm:      0.043623  CPU:   10.388
  Cycle:    172 Energy:      -649.329683  Gnorm:      0.035401  CPU:   10.441
  Cycle:    173 Energy:      -649.331449  Gnorm:      0.033567  CPU:   10.493
  Cycle:    174 Energy:      -649.333152  Gnorm:      0.035703  CPU:   10.545
  Cycle:    175 Energy:      -649.335199  Gnorm:      0.026683  CPU:   10.598
  Cycle:    176 Energy:      -649.337805  Gnorm:      0.027402  CPU:   10.650
  Cycle:    177 Energy:      -649.339675  Gnorm:      0.025237  CPU:   10.702
  Cycle:    178 Energy:      -649.341357  Gnorm:      0.043064  CPU:   10.754
  Cycle:    179 Energy:      -649.344343  Gnorm:      0.046658  CPU:   10.806
  Cycle:    180 Energy:      -649.346759  Gnorm:      0.035860  CPU:   10.859
  Cycle:    181 Energy:      -649.347881  Gnorm:      0.021059  CPU:   10.911
  Cycle:    182 Energy:      -649.349073  Gnorm:      0.023025  CPU:   10.963
  Cycle:    183 Energy:      -649.350391  Gnorm:      0.026510  CPU:   11.016
  Cycle:    184 Energy:      -649.351199  Gnorm:      0.023232  CPU:   11.070
  Cycle:    185 Energy:      -649.352128  Gnorm:      0.022037  CPU:   11.137
  Cycle:    186 Energy:      -649.353117  Gnorm:      0.018715  CPU:   11.189
  Cycle:    187 Energy:      -649.354814  Gnorm:      0.023382  CPU:   11.257
  Cycle:    188 Energy:      -649.356032  Gnorm:      0.017048  CPU:   11.309
  Cycle:    189 Energy:      -649.357367  Gnorm:      0.042024  CPU:   11.377
  Cycle:    190 Energy:      -649.358276  Gnorm:      0.016238  CPU:   11.429
  Cycle:    191 Energy:      -649.359079  Gnorm:      0.016480  CPU:   11.485
  Cycle:    192 Energy:      -649.359927  Gnorm:      0.022999  CPU:   11.536
  Cycle:    193 Energy:      -649.360488  Gnorm:      0.016435  CPU:   11.592
  Cycle:    194 Energy:      -649.360808  Gnorm:      0.014306  CPU:   11.645
  Cycle:    195 Energy:      -649.361334  Gnorm:      0.014592  CPU:   11.701
  Cycle:    196 Energy:      -649.361698  Gnorm:      0.016194  CPU:   11.753
  Cycle:    197 Energy:      -649.362146  Gnorm:      0.014462  CPU:   11.808
  Cycle:    198 Energy:      -649.362451  Gnorm:      0.014723  CPU:   11.860
  Cycle:    199 Energy:      -649.362904  Gnorm:      0.015161  CPU:   11.927
  Cycle:    200 Energy:      -649.363170  Gnorm:      0.014421  CPU:   11.979
  Cycle:    201 Energy:      -649.363425  Gnorm:      0.011184  CPU:   12.035
  Cycle:    202 Energy:      -649.363748  Gnorm:      0.010490  CPU:   12.088
  Cycle:    203 Energy:      -649.364016  Gnorm:      0.012222  CPU:   12.143
  Cycle:    204 Energy:      -649.364342  Gnorm:      0.011982  CPU:   12.195
  Cycle:    205 Energy:      -649.364499  Gnorm:      0.011632  CPU:   12.251
  Cycle:    206 Energy:      -649.364940  Gnorm:      0.014123  CPU:   12.303
  Cycle:    207 Energy:      -649.365431  Gnorm:      0.011250  CPU:   12.359
  Cycle:    208 Energy:      -649.365612  Gnorm:      0.013504  CPU:   12.415
  Cycle:    209 Energy:      -649.365941  Gnorm:      0.014432  CPU:   12.472
  Cycle:    210 Energy:      -649.366208  Gnorm:      0.011761  CPU:   12.525
  Cycle:    211 Energy:      -649.366355  Gnorm:      0.010386  CPU:   12.584
  Cycle:    212 Energy:      -649.366641  Gnorm:      0.010665  CPU:   12.637
  Cycle:    213 Energy:      -649.366881  Gnorm:      0.009426  CPU:   12.693
  ** Hessian has required structure
  Cycle:    214 Energy:      -649.368838  Gnorm:      0.003414  CPU:   12.898
  ** Hessian has required structure
  Cycle:    215 Energy:      -649.369219  Gnorm:      0.000614  CPU:   12.968
  ** Hessian has required structure


  **** Optimisation achieved ****


  Final enthalpy =    -649.36922713 eV      
  Final Gnorm    =       0.00010456

  Components of enthalpy : 

--------------------------------------------------------------------------------
  Interatomic potentials     =         213.91415831 eV    
  Monopole - monopole (real) =        -494.01834234 eV    
  Monopole - monopole (recip)=        -494.05744198 eV    
  Monopole - monopole (total)=        -988.07578432 eV    
  Pressure*volume            =         124.79239889 eV    
--------------------------------------------------------------------------------
  Total lattice enthalpy     =        -649.36922713 eV    
--------------------------------------------------------------------------------
  Total lattice enthalpy     =          -62654.2039 kJ/(mole unit cells)
--------------------------------------------------------------------------------

  Final fractional coordinates of atoms :

--------------------------------------------------------------------------------
   No.  Atomic        x           y          z          Radius
        Label       (Frac)      (Frac)     (Frac)       (Angs) 
--------------------------------------------------------------------------------
     1  Al    c     0.126594    0.163567    0.026289    0.000000
     2  Al    c     0.890006    0.530778    0.085881    0.000000
     3  Al    c     0.126593    0.714371    0.526285    0.000000
     4  Al    c     0.394837    0.029468    0.566088    0.000000
     5  Al    c     0.394839    0.848469    0.066089    0.000000
     6  Al    c     0.622219    0.217571    0.011748    0.000000
     7  Al    c     0.890011    0.347160    0.585884    0.000000
     8  Al    c     0.622220    0.660368    0.511753    0.000000
     9  Mg    c     0.860294    0.863848    0.923018    0.000000
    10  Mg    c     0.860288    0.014092    0.423016    0.000000
    11  Mg    c     0.357912    0.515970    0.962333    0.000000
    12  Mg    c     0.357916    0.361971    0.462330    0.000000
    13  O     c     0.148568    0.971719    0.207509    0.000000
    14  O     c     0.592652    0.885612    0.491387    0.000000
    15  O     c     0.824454    0.720203    0.253701    0.000000
    16  O     c     0.919730    0.223782    0.282202    0.000000
    17  O     c     0.096148    0.495034    0.480108    0.000000
    18  O     c     0.637240    0.412611    0.830599    0.000000
    19  O     c     0.303775    0.194152    0.745258    0.000000
    20  O     c     0.445166    0.695849    0.782841    0.000000
    21  O     c     0.445167    0.182089    0.282838    0.000000
    22  O     c     0.303773    0.683789    0.245266    0.000000
    23  O     c     0.096151    0.382903    0.980110    0.000000
    24  O     c     0.637236    0.465330    0.330599    0.000000
    25  O     c     0.919734    0.654156    0.782201    0.000000
    26  O     c     0.824457    0.157736    0.753704    0.000000
    27  O     c     0.148566    0.906220    0.707507    0.000000
    28  O     c     0.592651    0.992326    0.991385    0.000000
--------------------------------------------------------------------------------

  Final Cartesian lattice vectors (Angstroms) :

        5.273246    0.001784   -0.727670
       -0.002923    8.294147   -0.001327
       -0.692004    0.000499    4.666921


  Final cell parameters and derivatives :

--------------------------------------------------------------------------------
       a            5.323217 Angstrom     dE/de1(xx)     0.001016 eV/strain
       b            8.294148 Angstrom     dE/de2(yy)     0.000476 eV/strain
       c            4.717947 Angstrom     dE/de3(zz)     0.002210 eV/strain
       alpha       90.000046 Degrees      dE/de4(yz)    -0.000101 eV/strain
       beta       106.291054 Degrees      dE/de5(xz)    -0.000241 eV/strain
       gamma       89.999545 Degrees      dE/de6(xy)     0.000913 eV/strain
--------------------------------------------------------------------------------

  Primitive cell volume =           199.941009 Angs**3

  Density of cell =      4.726367 g/cm**3

  Non-primitive cell volume =           199.941009 Angs**3


  Final internal derivatives :

--------------------------------------------------------------------------------
   No.  Atomic          a             b             c           Radius
        Label          (eV)          (eV)          (eV)        (eV/Angs)
--------------------------------------------------------------------------------
      1 Al    c       0.000000      0.000000      0.000000      0.000000
      2 Al    c       0.001000     -0.000106     -0.001818      0.000000
      3 Al    c      -0.000000     -0.000105     -0.000377      0.000000
      4 Al    c       0.001536     -0.000176     -0.000697      0.000000
      5 Al    c      -0.000157      0.000342      0.000093      0.000000
      6 Al    c       0.001218     -0.001098     -0.000741      0.000000
      7 Al    c       0.000720     -0.002172      0.001479      0.000000
      8 Al    c       0.000093      0.001204      0.000595      0.000000
      9 Mg    c      -0.000052      0.000681      0.000415      0.000000
     10 Mg    c      -0.000479      0.000357     -0.000443      0.000000
     11 Mg    c      -0.001422     -0.000810      0.000359      0.000000
     12 Mg    c      -0.000914      0.000217     -0.000856      0.000000
     13 O     c       0.000192     -0.001063      0.000262      0.000000
     14 O     c      -0.000213     -0.000817      0.000107      0.000000
     15 O     c      -0.000507     -0.000059      0.000364      0.000000
     16 O     c      -0.001857     -0.000020      0.002915      0.000000
     17 O     c       0.000175     -0.000036      0.000212      0.000000
     18 O     c       0.000727      0.000368      0.000180      0.000000
     19 O     c       0.002284      0.000789     -0.003654      0.000000
     20 O     c      -0.000194     -0.000083      0.000313      0.000000
     21 O     c       0.000237      0.001693      0.001039      0.000000
     22 O     c       0.000621     -0.000300     -0.000073      0.000000
     23 O     c       0.001546      0.000614     -0.000922      0.000000
     24 O     c      -0.001752      0.001512      0.000585      0.000000
     25 O     c      -0.000088     -0.000070     -0.000086      0.000000
     26 O     c      -0.000096     -0.000141     -0.000596      0.000000
     27 O     c      -0.000612     -0.000893      0.000036      0.000000
     28 O     c       0.000200      0.000163      0.000520      0.000000
--------------------------------------------------------------------------------
  Maximum abs         0.002284      0.002172      0.003654      0.000000
--------------------------------------------------------------------------------


  Time to end of optimisation =      13.0388 seconds


  Peak dynamic memory used =       2.03 MB 


  Timing analysis for GULP :

--------------------------------------------------------------------------------
  Task / Subroutine                                          Time (Seconds)
--------------------------------------------------------------------------------
  Calculation of reciprocal space energy and derivatives          0.6306
  Calculation of real space energy and derivatives               12.2913
  Calculation and manipulation of Hessian matrix                  0.0552
  Global summation overhead                                       0.0014
--------------------------------------------------------------------------------
  Total CPU time                                                 13.0389
--------------------------------------------------------------------------------


  Job Finished at 15:47.54 11th June       2024                               

