********************************************************************************
*                       GENERAL UTILITY LATTICE PROGRAM                        *
*                                 Julian Gale                                  *
*                       Curtin Institute for Computation                       *
*                    School of Molecular and Life Sciences                     *
*                    Curtin University, Western Australia                      *
********************************************************************************
* Version = 6.0.0 * Last modified =  12th July 2021                            *
********************************************************************************
*  optimise     - perform optimisation run                                     *
*  conp         - constant pressure calculation                                *
*  nosymmetry   - turn off symmetry after initial structure generation         *
*  conjugate    - use conjugate gradients minimiser                            *
********************************************************************************

  Job Started  at 15:48.23 11th June       2024                               

  Number of CPUs =     1


  Total number of configurations input =      1

********************************************************************************
*  Input for Configuration =   1                                               *
********************************************************************************

  Formula = Al8Mg4O16                                                   

  Number of irreducible atoms/shells =      28


  Total number atoms/shells =      28

  Dimensionality = 3               :  Bulk   



  Cartesian lattice vectors (Angstroms) :

        5.044439    0.000000    0.000000
        0.000000    5.044439    0.000000
        0.000000    0.000000   11.102519

  Cell parameters (Angstroms/Degrees):

  a =       5.0444    alpha =  90.0000
  b =       5.0444    beta  =  90.0000
  c =      11.1025    gamma =  90.0000

  Initial cell volume =         282.518746 Angs**3

  Temperature of configuration =   0.00     K 

  Pressure of configuration =       100.000 GPa 

  Fractional coordinates of asymmetric unit :

--------------------------------------------------------------------------------
   No.  Atomic       x           y          z         Charge      Occupancy
        Label      (Frac)      (Frac)     (Frac)        (e)         (Frac)  
--------------------------------------------------------------------------------
      1 Al    c    0.500000    0.500000    0.308602     3.00000    1.000000    
      2 Al    c    0.500000 *  0.500000 *  0.808602 *   3.00000    1.000000    
      3 Al    c    0.798191 *  0.428755 *  0.415943 *   3.00000    1.000000    
      4 Al    c    0.201809 *  0.571245 *  0.415943 *   3.00000    1.000000    
      5 Al    c    0.571245 *  0.798191 *  0.915943 *   3.00000    1.000000    
      6 Al    c    0.428755 *  0.201809 *  0.915943 *   3.00000    1.000000    
      7 Al    c    0.000000 *  0.500000 *  0.591994 *   3.00000    1.000000    
      8 Al    c    0.500000 *  0.000000 *  0.091994 *   3.00000    1.000000    
      9 Mg    c    0.024827 *  0.145604 *  0.156733 *   2.00000    1.000000    
     10 Mg    c    0.975173 *  0.854396 *  0.156733 *   2.00000    1.000000    
     11 Mg    c    0.854396 *  0.024827 *  0.656733 *   2.00000    1.000000    
     12 Mg    c    0.145604 *  0.975173 *  0.656733 *   2.00000    1.000000    
     13 O     c    0.000000 *  0.000000 *  0.824587 *  -2.00000    1.000000    
     14 O     c    0.000000 *  0.000000 *  0.324587 *  -2.00000    1.000000    
     15 O     c    0.180157 *  0.827791 *  0.932268 *  -2.00000    1.000000    
     16 O     c    0.819843 *  0.172209 *  0.932268 *  -2.00000    1.000000    
     17 O     c    0.172209 *  0.180157 *  0.432268 *  -2.00000    1.000000    
     18 O     c    0.827791 *  0.819843 *  0.432268 *  -2.00000    1.000000    
     19 O     c    0.755658 *  0.407683 *  0.264371 *  -2.00000    1.000000    
     20 O     c    0.244342 *  0.592317 *  0.264371 *  -2.00000    1.000000    
     21 O     c    0.592317 *  0.755658 *  0.764371 *  -2.00000    1.000000    
     22 O     c    0.407683 *  0.244342 *  0.764371 *  -2.00000    1.000000    
     23 O     c    0.574463 *  0.845242 *  0.658133 *  -2.00000    1.000000    
     24 O     c    0.425537 *  0.154758 *  0.658133 *  -2.00000    1.000000    
     25 O     c    0.154758 *  0.574463 *  0.158133 *  -2.00000    1.000000    
     26 O     c    0.845242 *  0.425537 *  0.158133 *  -2.00000    1.000000    
     27 O     c    0.500000 *  0.500000 *  0.912930 *  -2.00000    1.000000    
     28 O     c    0.500000 *  0.500000 *  0.412930 *  -2.00000    1.000000    
--------------------------------------------------------------------------------



********************************************************************************
*  General input information                                                   *
********************************************************************************

  Species output for all configurations : 

--------------------------------------------------------------------------------
  Species    Type    Atomic    Atomic    Charge       Radii (Angs)     Library
                     Number     Mass       (e)     Cova   Ionic  VDW   Symbol
--------------------------------------------------------------------------------
    Mg       Core       12      24.31   2.000000   1.100  0.000  1.640          
    Al       Core       13      26.98   3.000000   1.350  0.000  2.050          
    O        Core        8      16.00  -2.000000   0.730  0.000  1.360          
--------------------------------------------------------------------------------


  Lattice summation method               =    Ewald          (3-D)
                                         =    Parry          (2-D)
                                         =    Saunders et al (1-D)
  Accuracy factor for lattice sums       =   12.000


  Analytic derivatives to be used

  Time limit = Infinity

  Maximum range for interatomic potentials =    100000.000000 Angstroms

  General interatomic potentials :

--------------------------------------------------------------------------------
Atom  Types   Potential      Parameter       Value         Units   Cutoffs(Ang)
  1     2                                                            Min /  Max 
--------------------------------------------------------------------------------
O    c Mg   c Lennard       Lennard-Jones A  1.5000000    eV*Ang^m  0.000  6.000
                            Lennard-Jones B  0.0000000    eV*Ang^n  
                            Exponent m        12          None
                            Exponent n         6          None
--------------------------------------------------------------------------------
O    c Al   c Lennard       Lennard-Jones A  1.5000000    eV*Ang^m  0.000  6.000
                            Lennard-Jones B  0.0000000    eV*Ang^n  
                            Exponent m        12          None
                            Exponent n         6          None
--------------------------------------------------------------------------------
O    c O    c Lennard       Lennard-Jones A  1.5000000    eV*Ang^m  0.000  6.000
                            Lennard-Jones B  0.0000000    eV*Ang^n  
                            Exponent m        12          None
                            Exponent n         6          None
--------------------------------------------------------------------------------
Mg   c Mg   c Lennard       Lennard-Jones A  1.5000000    eV*Ang^m  0.000  6.000
                            Lennard-Jones B  0.0000000    eV*Ang^n  
                            Exponent m        12          None
                            Exponent n         6          None
--------------------------------------------------------------------------------
Mg   c Al   c Lennard       Lennard-Jones A  1.5000000    eV*Ang^m  0.000  6.000
                            Lennard-Jones B  0.0000000    eV*Ang^n  
                            Exponent m        12          None
                            Exponent n         6          None
--------------------------------------------------------------------------------
Al   c Al   c Lennard       Lennard-Jones A  1.5000000    eV*Ang^m  0.000  6.000
                            Lennard-Jones B  0.0000000    eV*Ang^n  
                            Exponent m        12          None
                            Exponent n         6          None
--------------------------------------------------------------------------------
O    c Mg   c Buckingham    Buckingham A     1428.5000    eV        0.000  7.000
                            Buckingham rho  0.29450000    Ang       
                            Buckingham C     0.0000000    eV*Ang^6  
--------------------------------------------------------------------------------
O    c Al   c Buckingham    Buckingham A     1114.9000    eV        0.000  7.000
                            Buckingham rho  0.31180000    Ang       
                            Buckingham C     0.0000000    eV*Ang^6  
--------------------------------------------------------------------------------
O    c O    c Buckingham    Buckingham A     2023.8000    eV        0.000  7.000
                            Buckingham rho  0.26740000    Ang       
                            Buckingham C     0.0000000    eV*Ang^6  
--------------------------------------------------------------------------------

********************************************************************************
*  Output for configuration   1                                                *
********************************************************************************


  Components of enthalpy : 

--------------------------------------------------------------------------------
  Interatomic potentials     =         295.31533867 eV    
  Monopole - monopole (real) =        -249.98861730 eV    
  Monopole - monopole (recip)=        -428.33288188 eV    
  Monopole - monopole (total)=        -678.32149917 eV    
  Pressure*volume            =         176.33297031 eV    
--------------------------------------------------------------------------------
  Total lattice enthalpy     =        -206.67319020 eV    
--------------------------------------------------------------------------------
  Total lattice enthalpy     =          -19940.8036 kJ/(mole unit cells)
--------------------------------------------------------------------------------


  Number of variables =       87

  Maximum number of calculations  =           850
  Maximum Hessian update interval =            10
  Maximum step size               =   1.000000000
  Maximum parameter tolerance     =   0.000010000
  Maximum function  tolerance     =   0.000010000
  Maximum gradient  tolerance     =   0.001000000
  Maximum gradient  component     =   0.010000000

  Cell parameters to be optimised using strains

  Conjugate gradient optimiser to be used

  Lower half triangular hessian to be used

  Minimiser to switch to RFO
  When gradient norm is less than     0.010000

  Start of bulk optimisation :

  Cycle:      0 Energy:      -206.673190  Gnorm:     37.265765  CPU:    0.036
  Cycle:      1 Energy:      -347.509000  Gnorm:     10.818976  CPU:    0.093
  Cycle:      2 Energy:      -385.837023  Gnorm:      7.759867  CPU:    0.132
  Cycle:      3 Energy:      -419.078681  Gnorm:      8.172686  CPU:    0.190
  Cycle:      4 Energy:      -484.944976  Gnorm:      7.821649  CPU:    0.251
  Cycle:      5 Energy:      -516.785210  Gnorm:      4.550018  CPU:    0.302
  Cycle:      6 Energy:      -527.340255  Gnorm:      3.454544  CPU:    0.353
  Cycle:      7 Energy:      -534.172908  Gnorm:      2.796176  CPU:    0.402
  Cycle:      8 Energy:      -539.205964  Gnorm:      2.592583  CPU:    0.455
  Cycle:      9 Energy:      -542.037126  Gnorm:      2.266925  CPU:    0.496
  Cycle:     10 Energy:      -543.367128  Gnorm:      1.708668  CPU:    0.535
  Cycle:     11 Energy:      -545.515655  Gnorm:      1.648133  CPU:    0.584
  Cycle:     12 Energy:      -546.788350  Gnorm:      1.649756  CPU:    0.624
  Cycle:     13 Energy:      -548.606205  Gnorm:      1.508848  CPU:    0.672
  Cycle:     14 Energy:      -550.178563  Gnorm:      1.728265  CPU:    0.720
  Cycle:     15 Energy:      -552.332551  Gnorm:      1.949732  CPU:    0.768
  Cycle:     16 Energy:      -553.861127  Gnorm:      1.839178  CPU:    0.808
  Cycle:     17 Energy:      -555.197398  Gnorm:      1.809911  CPU:    0.857
  Cycle:     18 Energy:      -558.602651  Gnorm:      2.241381  CPU:    0.905
  Cycle:     19 Energy:      -561.152086  Gnorm:      2.677651  CPU:    0.945
  Cycle:     20 Energy:      -562.723418  Gnorm:      1.880273  CPU:    0.985
  Cycle:     21 Energy:      -566.191773  Gnorm:      2.291609  CPU:    1.033
  Cycle:     22 Energy:      -568.105470  Gnorm:      2.074046  CPU:    1.073
  Cycle:     23 Energy:      -572.067362  Gnorm:      2.107312  CPU:    1.122
  Cycle:     24 Energy:      -574.740544  Gnorm:      2.153616  CPU:    1.178
  Cycle:     25 Energy:      -577.853525  Gnorm:      1.962893  CPU:    1.252
  Cycle:     26 Energy:      -581.924836  Gnorm:      2.436722  CPU:    1.326
  Cycle:     27 Energy:      -584.928866  Gnorm:      1.834282  CPU:    1.382
  Cycle:     28 Energy:      -586.988086  Gnorm:      1.968557  CPU:    1.456
  Cycle:     29 Energy:      -589.406725  Gnorm:      1.415232  CPU:    1.526
  Cycle:     30 Energy:      -590.530377  Gnorm:      1.082499  CPU:    1.586
  Cycle:     31 Energy:      -591.361033  Gnorm:      1.131738  CPU:    1.657
  Cycle:     32 Energy:      -592.735169  Gnorm:      1.614265  CPU:    1.729
  Cycle:     33 Energy:      -595.083663  Gnorm:      2.172766  CPU:    1.799
  Cycle:     34 Energy:      -598.682044  Gnorm:      2.082317  CPU:    1.860
  Cycle:     35 Energy:      -601.091360  Gnorm:      1.685418  CPU:    1.917
  Cycle:     36 Energy:      -604.342676  Gnorm:      1.501242  CPU:    1.992
  Cycle:     37 Energy:      -606.504276  Gnorm:      1.185852  CPU:    2.050
  Cycle:     38 Energy:      -607.679611  Gnorm:      1.255585  CPU:    2.111
  Cycle:     39 Energy:      -609.074785  Gnorm:      1.374700  CPU:    2.183
  Cycle:     40 Energy:      -609.916740  Gnorm:      0.922308  CPU:    2.250
  Cycle:     41 Energy:      -610.468888  Gnorm:      0.727633  CPU:    2.326
  Cycle:     42 Energy:      -611.049332  Gnorm:      0.749372  CPU:    2.401
  Cycle:     43 Energy:      -611.839988  Gnorm:      0.773533  CPU:    2.473
  Cycle:     44 Energy:      -613.417128  Gnorm:      1.360728  CPU:    2.549
  Cycle:     45 Energy:      -614.443301  Gnorm:      0.953305  CPU:    2.608
  Cycle:     46 Energy:      -615.551644  Gnorm:      1.305556  CPU:    2.683
  Cycle:     47 Energy:      -616.481335  Gnorm:      0.940766  CPU:    2.742
  Cycle:     48 Energy:      -617.422141  Gnorm:      0.973515  CPU:    2.818
  Cycle:     49 Energy:      -618.224020  Gnorm:      0.879725  CPU:    2.878
  Cycle:     50 Energy:      -618.499441  Gnorm:      0.559279  CPU:    2.940
  Cycle:     51 Energy:      -618.734892  Gnorm:      0.439846  CPU:    3.013
  Cycle:     52 Energy:      -618.968544  Gnorm:      0.540256  CPU:    3.089
  Cycle:     53 Energy:      -619.245736  Gnorm:      0.628255  CPU:    3.162
  Cycle:     54 Energy:      -619.612284  Gnorm:      0.613753  CPU:    3.225
  Cycle:     55 Energy:      -619.961554  Gnorm:      0.660852  CPU:    3.298
  Cycle:     56 Energy:      -620.177228  Gnorm:      0.517428  CPU:    3.362
  Cycle:     57 Energy:      -620.429857  Gnorm:      0.437886  CPU:    3.436
  Cycle:     58 Energy:      -620.573238  Gnorm:      0.434727  CPU:    3.499
  Cycle:     59 Energy:      -620.785777  Gnorm:      0.459610  CPU:    3.573
  Cycle:     60 Energy:      -620.871141  Gnorm:      0.290872  CPU:    3.637
  Cycle:     61 Energy:      -620.944194  Gnorm:      0.303593  CPU:    3.711
  Cycle:     62 Energy:      -621.038316  Gnorm:      0.329727  CPU:    3.788
  Cycle:     63 Energy:      -621.120267  Gnorm:      0.376547  CPU:    3.848
  Cycle:     64 Energy:      -621.209396  Gnorm:      0.242241  CPU:    3.912
  Cycle:     65 Energy:      -621.292617  Gnorm:      0.282357  CPU:    3.986
  Cycle:     66 Energy:      -621.378131  Gnorm:      0.328838  CPU:    4.051
  Cycle:     67 Energy:      -621.476485  Gnorm:      0.363864  CPU:    4.112
  Cycle:     68 Energy:      -621.545347  Gnorm:      0.294861  CPU:    4.176
  Cycle:     69 Energy:      -621.655345  Gnorm:      0.314027  CPU:    4.250
  Cycle:     70 Energy:      -621.726115  Gnorm:      0.266766  CPU:    4.314
  Cycle:     71 Energy:      -621.772717  Gnorm:      0.304698  CPU:    4.375
  Cycle:     72 Energy:      -621.852512  Gnorm:      0.252513  CPU:    4.453
  Cycle:     73 Energy:      -621.907850  Gnorm:      0.266867  CPU:    4.529
  Cycle:     74 Energy:      -621.963209  Gnorm:      0.257985  CPU:    4.592
  Cycle:     75 Energy:      -622.019494  Gnorm:      0.259783  CPU:    4.656
  Cycle:     76 Energy:      -622.085045  Gnorm:      0.260071  CPU:    4.738
  Cycle:     77 Energy:      -622.188389  Gnorm:      0.247479  CPU:    4.825
  Cycle:     78 Energy:      -622.233845  Gnorm:      0.287070  CPU:    4.889
  Cycle:     79 Energy:      -622.290858  Gnorm:      0.342961  CPU:    4.965
  Cycle:     80 Energy:      -622.337264  Gnorm:      0.258668  CPU:    5.032
  Cycle:     81 Energy:      -622.377945  Gnorm:      0.238115  CPU:    5.108
  Cycle:     82 Energy:      -622.444626  Gnorm:      0.258398  CPU:    5.189
  Cycle:     83 Energy:      -622.513679  Gnorm:      0.211883  CPU:    5.251
  Cycle:     84 Energy:      -622.556793  Gnorm:      0.287342  CPU:    5.333
  Cycle:     85 Energy:      -622.614287  Gnorm:      0.253048  CPU:    5.413
  Cycle:     86 Energy:      -622.656107  Gnorm:      0.263769  CPU:    5.478
  Cycle:     87 Energy:      -622.715246  Gnorm:      0.294703  CPU:    5.555
  Cycle:     88 Energy:      -622.768112  Gnorm:      0.238626  CPU:    5.620
  Cycle:     89 Energy:      -622.836477  Gnorm:      0.271745  CPU:    5.695
  Cycle:     90 Energy:      -622.882579  Gnorm:      0.245106  CPU:    5.760
  Cycle:     91 Energy:      -622.911374  Gnorm:      0.217668  CPU:    5.821
  Cycle:     92 Energy:      -622.973232  Gnorm:      0.229190  CPU:    5.900
  Cycle:     93 Energy:      -623.008702  Gnorm:      0.229314  CPU:    5.961
  Cycle:     94 Energy:      -623.062435  Gnorm:      0.282479  CPU:    6.040
  Cycle:     95 Energy:      -623.123592  Gnorm:      0.248284  CPU:    6.102
  Cycle:     96 Energy:      -623.217013  Gnorm:      0.318692  CPU:    6.181
  Cycle:     97 Energy:      -623.316416  Gnorm:      0.297900  CPU:    6.243
  Cycle:     98 Energy:      -623.361716  Gnorm:      0.313262  CPU:    6.309
  Cycle:     99 Energy:      -623.474559  Gnorm:      0.413529  CPU:    6.391
  Cycle:    100 Energy:      -623.543928  Gnorm:      0.281509  CPU:    6.457
  Cycle:    101 Energy:      -623.583131  Gnorm:      0.231796  CPU:    6.533
  Cycle:    102 Energy:      -623.638675  Gnorm:      0.289410  CPU:    6.612
  Cycle:    103 Energy:      -623.700527  Gnorm:      0.246665  CPU:    6.674
  Cycle:    104 Energy:      -623.729550  Gnorm:      0.173314  CPU:    6.740
  Cycle:    105 Energy:      -623.778651  Gnorm:      0.182195  CPU:    6.802
  Cycle:    106 Energy:      -623.800583  Gnorm:      0.152269  CPU:    6.869
  Cycle:    107 Energy:      -623.831263  Gnorm:      0.183028  CPU:    6.948
  Cycle:    108 Energy:      -623.849232  Gnorm:      0.168282  CPU:    7.012
  Cycle:    109 Energy:      -623.887251  Gnorm:      0.229383  CPU:    7.091
  Cycle:    110 Energy:      -623.904042  Gnorm:      0.160114  CPU:    7.154
  Cycle:    111 Energy:      -623.922586  Gnorm:      0.117682  CPU:    7.234
  Cycle:    112 Energy:      -623.942319  Gnorm:      0.134991  CPU:    7.310
  Cycle:    113 Energy:      -623.955278  Gnorm:      0.133068  CPU:    7.377
  Cycle:    114 Energy:      -623.976057  Gnorm:      0.188070  CPU:    7.453
  Cycle:    115 Energy:      -623.998922  Gnorm:      0.120168  CPU:    7.517
  Cycle:    116 Energy:      -624.023751  Gnorm:      0.150494  CPU:    7.596
  Cycle:    117 Energy:      -624.037009  Gnorm:      0.149662  CPU:    7.658
  Cycle:    118 Energy:      -624.050646  Gnorm:      0.147253  CPU:    7.727
  Cycle:    119 Energy:      -624.071370  Gnorm:      0.145388  CPU:    7.804
  Cycle:    120 Energy:      -624.084956  Gnorm:      0.116433  CPU:    7.866
  Cycle:    121 Energy:      -624.090485  Gnorm:      0.089642  CPU:    7.928
  Cycle:    122 Energy:      -624.100796  Gnorm:      0.103612  CPU:    7.990
  Cycle:    123 Energy:      -624.106460  Gnorm:      0.087961  CPU:    8.052
  Cycle:    124 Energy:      -624.113751  Gnorm:      0.100332  CPU:    8.129
  Cycle:    125 Energy:      -624.125835  Gnorm:      0.110660  CPU:    8.205
  Cycle:    126 Energy:      -624.140568  Gnorm:      0.104926  CPU:    8.282
  Cycle:    127 Energy:      -624.148572  Gnorm:      0.095854  CPU:    8.346
  Cycle:    128 Energy:      -624.154680  Gnorm:      0.115368  CPU:    8.409
  Cycle:    129 Energy:      -624.167325  Gnorm:      0.103471  CPU:    8.485
  Cycle:    130 Energy:      -624.173004  Gnorm:      0.109029  CPU:    8.548
  Cycle:    131 Energy:      -624.181344  Gnorm:      0.075060  CPU:    8.612
  Cycle:    132 Energy:      -624.185143  Gnorm:      0.085612  CPU:    8.674
  Cycle:    133 Energy:      -624.191656  Gnorm:      0.093271  CPU:    8.738
  Cycle:    134 Energy:      -624.197811  Gnorm:      0.065101  CPU:    8.801
  Cycle:    135 Energy:      -624.203148  Gnorm:      0.049001  CPU:    8.865
  Cycle:    136 Energy:      -624.205544  Gnorm:      0.064263  CPU:    8.929
  Cycle:    137 Energy:      -624.207826  Gnorm:      0.057080  CPU:    8.991
  Cycle:    138 Energy:      -624.210022  Gnorm:      0.053780  CPU:    9.054
  Cycle:    139 Energy:      -624.213754  Gnorm:      0.076059  CPU:    9.116
  Cycle:    140 Energy:      -624.216007  Gnorm:      0.058546  CPU:    9.179
  Cycle:    141 Energy:      -624.217852  Gnorm:      0.043427  CPU:    9.242
  Cycle:    142 Energy:      -624.220259  Gnorm:      0.044377  CPU:    9.304
  Cycle:    143 Energy:      -624.222657  Gnorm:      0.042719  CPU:    9.384
  Cycle:    144 Energy:      -624.225342  Gnorm:      0.064005  CPU:    9.451
  Cycle:    145 Energy:      -624.228247  Gnorm:      0.059268  CPU:    9.519
  Cycle:    146 Energy:      -624.230784  Gnorm:      0.061016  CPU:    9.587
  Cycle:    147 Energy:      -624.233708  Gnorm:      0.052249  CPU:    9.655
  Cycle:    148 Energy:      -624.235520  Gnorm:      0.063601  CPU:    9.720
  Cycle:    149 Energy:      -624.238865  Gnorm:      0.061140  CPU:    9.800
  Cycle:    150 Energy:      -624.240681  Gnorm:      0.046423  CPU:    9.866
  Cycle:    151 Energy:      -624.242067  Gnorm:      0.042267  CPU:    9.932
  Cycle:    152 Energy:      -624.243306  Gnorm:      0.041864  CPU:    9.999
  Cycle:    153 Energy:      -624.244755  Gnorm:      0.042736  CPU:   10.063
  Cycle:    154 Energy:      -624.245751  Gnorm:      0.040741  CPU:   10.125
  Cycle:    155 Energy:      -624.248439  Gnorm:      0.039197  CPU:   10.204
  Cycle:    156 Energy:      -624.250897  Gnorm:      0.047656  CPU:   10.282
  Cycle:    157 Energy:      -624.252106  Gnorm:      0.049821  CPU:   10.345
  Cycle:    158 Energy:      -624.254029  Gnorm:      0.049678  CPU:   10.408
  Cycle:    159 Energy:      -624.257209  Gnorm:      0.063220  CPU:   10.486
  Cycle:    160 Energy:      -624.259522  Gnorm:      0.063309  CPU:   10.549
  Cycle:    161 Energy:      -624.261921  Gnorm:      0.049214  CPU:   10.612
  Cycle:    162 Energy:      -624.263784  Gnorm:      0.055767  CPU:   10.675
  Cycle:    163 Energy:      -624.266050  Gnorm:      0.057911  CPU:   10.737
  Cycle:    164 Energy:      -624.268335  Gnorm:      0.053519  CPU:   10.805
  Cycle:    165 Energy:      -624.272862  Gnorm:      0.062009  CPU:   10.885
  Cycle:    166 Energy:      -624.276937  Gnorm:      0.064303  CPU:   10.951
  Cycle:    167 Energy:      -624.284199  Gnorm:      0.095848  CPU:   11.029
  Cycle:    168 Energy:      -624.290065  Gnorm:      0.124669  CPU:   11.096
  Cycle:    169 Energy:      -624.305938  Gnorm:      0.184273  CPU:   11.174
  Cycle:    170 Energy:      -624.315590  Gnorm:      0.123349  CPU:   11.240
  Cycle:    171 Energy:      -624.332089  Gnorm:      0.126312  CPU:   11.318
  Cycle:    172 Energy:      -624.349417  Gnorm:      0.123880  CPU:   11.395
  Cycle:    173 Energy:      -624.366607  Gnorm:      0.118967  CPU:   11.472
  Cycle:    174 Energy:      -624.388101  Gnorm:      0.175884  CPU:   11.550
  Cycle:    175 Energy:      -624.402533  Gnorm:      0.142962  CPU:   11.613
  Cycle:    176 Energy:      -624.420925  Gnorm:      0.180798  CPU:   11.694
  Cycle:    177 Energy:      -624.442455  Gnorm:      0.168352  CPU:   11.776
  Cycle:    178 Energy:      -624.469545  Gnorm:      0.229273  CPU:   11.859
  Cycle:    179 Energy:      -624.527218  Gnorm:      0.316408  CPU:   11.939
  Cycle:    180 Energy:      -624.575982  Gnorm:      0.236286  CPU:   12.003
  Cycle:    181 Energy:      -624.597957  Gnorm:      0.157013  CPU:   12.067
  Cycle:    182 Energy:      -624.621591  Gnorm:      0.196705  CPU:   12.132
  Cycle:    183 Energy:      -624.644750  Gnorm:      0.169884  CPU:   12.197
  Cycle:    184 Energy:      -624.668382  Gnorm:      0.194843  CPU:   12.276
  Cycle:    185 Energy:      -624.712091  Gnorm:      0.225355  CPU:   12.355
  Cycle:    186 Energy:      -624.771178  Gnorm:      0.339642  CPU:   12.433
  Cycle:    187 Energy:      -624.832739  Gnorm:      0.293161  CPU:   12.500
  Cycle:    188 Energy:      -624.887339  Gnorm:      0.266819  CPU:   12.566
  Cycle:    189 Energy:      -624.951914  Gnorm:      0.338942  CPU:   12.647
  Cycle:    190 Energy:      -624.985867  Gnorm:      0.198816  CPU:   12.729
  Cycle:    191 Energy:      -625.010576  Gnorm:      0.214088  CPU:   12.809
  Cycle:    192 Energy:      -625.081651  Gnorm:      0.243121  CPU:   12.889
  Cycle:    193 Energy:      -625.138935  Gnorm:      0.334953  CPU:   12.961
  Cycle:    194 Energy:      -625.210747  Gnorm:      0.259518  CPU:   13.031
  Cycle:    195 Energy:      -625.259559  Gnorm:      0.237546  CPU:   13.096
  Cycle:    196 Energy:      -625.296603  Gnorm:      0.256490  CPU:   13.163
  Cycle:    197 Energy:      -625.348039  Gnorm:      0.326340  CPU:   13.244
  Cycle:    198 Energy:      -625.427433  Gnorm:      0.310028  CPU:   13.326
  Cycle:    199 Energy:      -625.570023  Gnorm:      0.615624  CPU:   13.408
  Cycle:    200 Energy:      -625.685392  Gnorm:      0.341315  CPU:   13.491
  Cycle:    201 Energy:      -625.786183  Gnorm:      0.389483  CPU:   13.575
  Cycle:    202 Energy:      -625.906672  Gnorm:      0.339626  CPU:   13.657
  Cycle:    203 Energy:      -626.044578  Gnorm:      0.626966  CPU:   13.740
  Cycle:    204 Energy:      -626.343985  Gnorm:      0.838968  CPU:   13.823
  Cycle:    205 Energy:      -627.197877  Gnorm:      1.438897  CPU:   13.890
  Cycle:    206 Energy:      -628.453072  Gnorm:      1.444281  CPU:   13.958
  Cycle:    207 Energy:      -629.192262  Gnorm:      0.990331  CPU:   14.046
  Cycle:    208 Energy:      -629.754653  Gnorm:      0.724924  CPU:   14.136
  Cycle:    209 Energy:      -630.103784  Gnorm:      0.772031  CPU:   14.225
  Cycle:    210 Energy:      -630.320239  Gnorm:      0.596706  CPU:   14.296
  Cycle:    211 Energy:      -630.546894  Gnorm:      0.521792  CPU:   14.390
  Cycle:    212 Energy:      -630.875055  Gnorm:      0.747276  CPU:   14.479
  Cycle:    213 Energy:      -631.271899  Gnorm:      0.634117  CPU:   14.555
  Cycle:    214 Energy:      -631.503921  Gnorm:      0.617287  CPU:   14.624
  Cycle:    215 Energy:      -632.001404  Gnorm:      0.745050  CPU:   14.714
  Cycle:    216 Energy:      -632.336998  Gnorm:      0.767446  CPU:   14.787
  Cycle:    217 Energy:      -632.606472  Gnorm:      0.564619  CPU:   14.859
  Cycle:    218 Energy:      -632.843199  Gnorm:      0.503283  CPU:   14.951
  Cycle:    219 Energy:      -633.094023  Gnorm:      0.595109  CPU:   15.037
  Cycle:    220 Energy:      -633.212913  Gnorm:      0.396111  CPU:   15.107
  Cycle:    221 Energy:      -633.323621  Gnorm:      0.399335  CPU:   15.193
  Cycle:    222 Energy:      -633.412768  Gnorm:      0.363707  CPU:   15.262
  Cycle:    223 Energy:      -633.514797  Gnorm:      0.488859  CPU:   15.332
  Cycle:    224 Energy:      -633.733858  Gnorm:      0.445828  CPU:   15.418
  Cycle:    225 Energy:      -633.882105  Gnorm:      0.419835  CPU:   15.487
  Cycle:    226 Energy:      -634.064776  Gnorm:      0.461544  CPU:   15.580
  Cycle:    227 Energy:      -634.167066  Gnorm:      0.453853  CPU:   15.655
  Cycle:    228 Energy:      -634.333920  Gnorm:      0.429700  CPU:   15.745
  Cycle:    229 Energy:      -634.427758  Gnorm:      0.403580  CPU:   15.816
  Cycle:    230 Energy:      -634.486029  Gnorm:      0.316738  CPU:   15.887
  Cycle:    231 Energy:      -634.554973  Gnorm:      0.276254  CPU:   15.976
  Cycle:    232 Energy:      -634.605127  Gnorm:      0.320957  CPU:   16.063
  Cycle:    233 Energy:      -634.663815  Gnorm:      0.263669  CPU:   16.133
  Cycle:    234 Energy:      -634.718259  Gnorm:      0.268594  CPU:   16.224
  Cycle:    235 Energy:      -634.809511  Gnorm:      0.272770  CPU:   16.310
  Cycle:    236 Energy:      -634.875363  Gnorm:      0.282521  CPU:   16.379
  Cycle:    237 Energy:      -634.923031  Gnorm:      0.295615  CPU:   16.449
  Cycle:    238 Energy:      -634.973251  Gnorm:      0.296288  CPU:   16.535
  Cycle:    239 Energy:      -635.062226  Gnorm:      0.377797  CPU:   16.620
  Cycle:    240 Energy:      -635.102406  Gnorm:      0.246983  CPU:   16.690
  Cycle:    241 Energy:      -635.156519  Gnorm:      0.239838  CPU:   16.776
  Cycle:    242 Energy:      -635.186664  Gnorm:      0.256251  CPU:   16.846
  Cycle:    243 Energy:      -635.234715  Gnorm:      0.245673  CPU:   16.932
  Cycle:    244 Energy:      -635.283433  Gnorm:      0.242312  CPU:   17.017
  Cycle:    245 Energy:      -635.333356  Gnorm:      0.204147  CPU:   17.087
  Cycle:    246 Energy:      -635.377786  Gnorm:      0.246888  CPU:   17.172
  Cycle:    247 Energy:      -635.420270  Gnorm:      0.275908  CPU:   17.242
  Cycle:    248 Energy:      -635.457056  Gnorm:      0.256447  CPU:   17.317
  Cycle:    249 Energy:      -635.510957  Gnorm:      0.266235  CPU:   17.403
  Cycle:    250 Energy:      -635.546522  Gnorm:      0.224813  CPU:   17.472
  Cycle:    251 Energy:      -635.575929  Gnorm:      0.239439  CPU:   17.543
  Cycle:    252 Energy:      -635.607971  Gnorm:      0.219780  CPU:   17.632
  Cycle:    253 Energy:      -635.648489  Gnorm:      0.212212  CPU:   17.718
  Cycle:    254 Energy:      -635.674498  Gnorm:      0.220843  CPU:   17.788
  Cycle:    255 Energy:      -635.714331  Gnorm:      0.232040  CPU:   17.878
  Cycle:    256 Energy:      -635.756614  Gnorm:      0.213873  CPU:   17.966
  Cycle:    257 Energy:      -635.791045  Gnorm:      0.256051  CPU:   18.037
  Cycle:    258 Energy:      -635.825482  Gnorm:      0.254430  CPU:   18.106
  Cycle:    259 Energy:      -635.863257  Gnorm:      0.223337  CPU:   18.177
  Cycle:    260 Energy:      -635.889859  Gnorm:      0.204073  CPU:   18.250
  Cycle:    261 Energy:      -635.918201  Gnorm:      0.233252  CPU:   18.319
  Cycle:    262 Energy:      -635.943867  Gnorm:      0.195301  CPU:   18.389
  Cycle:    263 Energy:      -635.977770  Gnorm:      0.219359  CPU:   18.474
  Cycle:    264 Energy:      -636.009131  Gnorm:      0.202202  CPU:   18.544
  Cycle:    265 Energy:      -636.031293  Gnorm:      0.193761  CPU:   18.614
  Cycle:    266 Energy:      -636.065851  Gnorm:      0.179891  CPU:   18.699
  Cycle:    267 Energy:      -636.092006  Gnorm:      0.227127  CPU:   18.770
  Cycle:    268 Energy:      -636.121964  Gnorm:      0.235774  CPU:   18.839
  Cycle:    269 Energy:      -636.152559  Gnorm:      0.237427  CPU:   18.909
  Cycle:    270 Energy:      -636.173943  Gnorm:      0.199226  CPU:   18.978
  Cycle:    271 Energy:      -636.195981  Gnorm:      0.194261  CPU:   19.064
  Cycle:    272 Energy:      -636.219495  Gnorm:      0.169066  CPU:   19.149
  Cycle:    273 Energy:      -636.252054  Gnorm:      0.194039  CPU:   19.219
  Cycle:    274 Energy:      -636.274251  Gnorm:      0.210810  CPU:   19.288
  Cycle:    275 Energy:      -636.311347  Gnorm:      0.235850  CPU:   19.375
  Cycle:    276 Energy:      -636.347436  Gnorm:      0.221942  CPU:   19.449
  Cycle:    277 Energy:      -636.375107  Gnorm:      0.259750  CPU:   19.520
  Cycle:    278 Energy:      -636.418474  Gnorm:      0.244382  CPU:   19.605
  Cycle:    279 Energy:      -636.463782  Gnorm:      0.282997  CPU:   19.694
  Cycle:    280 Energy:      -636.504119  Gnorm:      0.229870  CPU:   19.764
  Cycle:    281 Energy:      -636.546069  Gnorm:      0.252694  CPU:   19.849
  Cycle:    282 Energy:      -636.581124  Gnorm:      0.258830  CPU:   19.918
  Cycle:    283 Energy:      -636.628700  Gnorm:      0.287673  CPU:   20.003
  Cycle:    284 Energy:      -636.675678  Gnorm:      0.284671  CPU:   20.073
  Cycle:    285 Energy:      -636.716264  Gnorm:      0.263772  CPU:   20.142
  Cycle:    286 Energy:      -636.785643  Gnorm:      0.238149  CPU:   20.227
  Cycle:    287 Energy:      -636.853291  Gnorm:      0.337544  CPU:   20.301
  Cycle:    288 Energy:      -636.931127  Gnorm:      0.378375  CPU:   20.370
  Cycle:    289 Energy:      -637.023841  Gnorm:      0.575882  CPU:   20.439
  Cycle:    290 Energy:      -637.092735  Gnorm:      0.299007  CPU:   20.514
  Cycle:    291 Energy:      -637.174769  Gnorm:      0.375577  CPU:   20.607
  Cycle:    292 Energy:      -637.264738  Gnorm:      0.305419  CPU:   20.679
  Cycle:    293 Energy:      -637.355899  Gnorm:      0.412837  CPU:   20.770
  Cycle:    294 Energy:      -637.436234  Gnorm:      0.356965  CPU:   20.839
  Cycle:    295 Energy:      -637.548959  Gnorm:      0.411366  CPU:   20.932
  Cycle:    296 Energy:      -637.626762  Gnorm:      0.386186  CPU:   21.002
  Cycle:    297 Energy:      -637.708218  Gnorm:      0.410471  CPU:   21.096
  Cycle:    298 Energy:      -637.828716  Gnorm:      0.365333  CPU:   21.183
  Cycle:    299 Energy:      -637.951204  Gnorm:      0.517427  CPU:   21.273
  Cycle:    300 Energy:      -638.040739  Gnorm:      0.295771  CPU:   21.342
  Cycle:    301 Energy:      -638.088214  Gnorm:      0.327943  CPU:   21.430
  Cycle:    302 Energy:      -638.160785  Gnorm:      0.351708  CPU:   21.516
  Cycle:    303 Energy:      -638.242317  Gnorm:      0.431974  CPU:   21.605
  Cycle:    304 Energy:      -638.333220  Gnorm:      0.384744  CPU:   21.674
  Cycle:    305 Energy:      -638.471859  Gnorm:      0.504909  CPU:   21.764
  Cycle:    306 Energy:      -638.721037  Gnorm:      0.417577  CPU:   21.851
  Cycle:    307 Energy:      -638.852709  Gnorm:      0.464920  CPU:   21.924
  Cycle:    308 Energy:      -638.929514  Gnorm:      0.366221  CPU:   22.029
  Cycle:    309 Energy:      -639.016179  Gnorm:      0.336161  CPU:   22.162
  Cycle:    310 Energy:      -639.067805  Gnorm:      0.318649  CPU:   22.271
  Cycle:    311 Energy:      -639.127370  Gnorm:      0.370957  CPU:   22.380
  Cycle:    312 Energy:      -639.211785  Gnorm:      0.346265  CPU:   22.518
  Cycle:    313 Energy:      -639.319093  Gnorm:      0.382680  CPU:   22.650
  Cycle:    314 Energy:      -639.393618  Gnorm:      0.326541  CPU:   22.759
  Cycle:    315 Energy:      -639.436477  Gnorm:      0.225994  CPU:   22.869
  Cycle:    316 Energy:      -639.491225  Gnorm:      0.283915  CPU:   23.001
  Cycle:    317 Energy:      -639.558545  Gnorm:      0.403648  CPU:   23.134
  Cycle:    318 Energy:      -639.623714  Gnorm:      0.334735  CPU:   23.242
  Cycle:    319 Energy:      -639.708115  Gnorm:      0.346865  CPU:   23.375
  Cycle:    320 Energy:      -639.738884  Gnorm:      0.242002  CPU:   23.484
  Cycle:    321 Energy:      -639.779267  Gnorm:      0.246234  CPU:   23.619
  Cycle:    322 Energy:      -639.830137  Gnorm:      0.267537  CPU:   23.756
  Cycle:    323 Energy:      -639.874906  Gnorm:      0.218719  CPU:   23.866
  Cycle:    324 Energy:      -639.904625  Gnorm:      0.273811  CPU:   23.998
  Cycle:    325 Energy:      -639.955438  Gnorm:      0.280764  CPU:   24.106
  Cycle:    326 Energy:      -640.023168  Gnorm:      0.259444  CPU:   24.238
  Cycle:    327 Energy:      -640.052717  Gnorm:      0.275835  CPU:   24.346
  Cycle:    328 Energy:      -640.095763  Gnorm:      0.217808  CPU:   24.478
  Cycle:    329 Energy:      -640.137533  Gnorm:      0.288311  CPU:   24.610
  Cycle:    330 Energy:      -640.165695  Gnorm:      0.205581  CPU:   24.717
  Cycle:    331 Energy:      -640.191535  Gnorm:      0.225087  CPU:   24.845
  Cycle:    332 Energy:      -640.221528  Gnorm:      0.211557  CPU:   24.949
  Cycle:    333 Energy:      -640.253193  Gnorm:      0.237131  CPU:   25.054
  Cycle:    334 Energy:      -640.280578  Gnorm:      0.238868  CPU:   25.158
  Cycle:    335 Energy:      -640.309958  Gnorm:      0.170468  CPU:   25.286
  Cycle:    336 Energy:      -640.337248  Gnorm:      0.176978  CPU:   25.389
  Cycle:    337 Energy:      -640.366873  Gnorm:      0.189679  CPU:   25.517
  Cycle:    338 Energy:      -640.381868  Gnorm:      0.170269  CPU:   25.621
  Cycle:    339 Energy:      -640.398598  Gnorm:      0.170698  CPU:   25.749
  Cycle:    340 Energy:      -640.411609  Gnorm:      0.162000  CPU:   25.853
  Cycle:    341 Energy:      -640.425186  Gnorm:      0.168406  CPU:   25.956
  Cycle:    342 Energy:      -640.444033  Gnorm:      0.173562  CPU:   26.084
  Cycle:    343 Energy:      -640.465204  Gnorm:      0.147518  CPU:   26.189
  Cycle:    344 Energy:      -640.481742  Gnorm:      0.186156  CPU:   26.316
  Cycle:    345 Energy:      -640.499089  Gnorm:      0.176176  CPU:   26.420
  Cycle:    346 Energy:      -640.521343  Gnorm:      0.148050  CPU:   26.548
  Cycle:    347 Energy:      -640.539100  Gnorm:      0.165613  CPU:   26.651
  Cycle:    348 Energy:      -640.551821  Gnorm:      0.147151  CPU:   26.755
  Cycle:    349 Energy:      -640.564833  Gnorm:      0.172314  CPU:   26.887
  Cycle:    350 Energy:      -640.574914  Gnorm:      0.148221  CPU:   26.994
  Cycle:    351 Energy:      -640.586947  Gnorm:      0.139604  CPU:   27.112
  Cycle:    352 Energy:      -640.600672  Gnorm:      0.136393  CPU:   27.219
  Cycle:    353 Energy:      -640.614402  Gnorm:      0.129314  CPU:   27.351
  Cycle:    354 Energy:      -640.630268  Gnorm:      0.150535  CPU:   27.458
  Cycle:    355 Energy:      -640.638506  Gnorm:      0.139487  CPU:   27.565
  Cycle:    356 Energy:      -640.653175  Gnorm:      0.124249  CPU:   27.696
  Cycle:    357 Energy:      -640.665793  Gnorm:      0.123491  CPU:   27.828
  Cycle:    358 Energy:      -640.674139  Gnorm:      0.108838  CPU:   27.935
  Cycle:    359 Energy:      -640.681918  Gnorm:      0.155358  CPU:   28.067
  Cycle:    360 Energy:      -640.688502  Gnorm:      0.103961  CPU:   28.174
  Cycle:    361 Energy:      -640.696194  Gnorm:      0.111585  CPU:   28.281
  Cycle:    362 Energy:      -640.705642  Gnorm:      0.125280  CPU:   28.387
  Cycle:    363 Energy:      -640.715883  Gnorm:      0.138554  CPU:   28.494
  Cycle:    364 Energy:      -640.724037  Gnorm:      0.123352  CPU:   28.602
  Cycle:    365 Energy:      -640.735408  Gnorm:      0.116143  CPU:   28.733
  Cycle:    366 Energy:      -640.746706  Gnorm:      0.105109  CPU:   28.840
  Cycle:    367 Energy:      -640.757730  Gnorm:      0.115227  CPU:   28.947
  Cycle:    368 Energy:      -640.766234  Gnorm:      0.120518  CPU:   29.054
  Cycle:    369 Energy:      -640.774653  Gnorm:      0.149246  CPU:   29.161
  Cycle:    370 Energy:      -640.781534  Gnorm:      0.117416  CPU:   29.268
  Cycle:    371 Energy:      -640.790149  Gnorm:      0.107090  CPU:   29.375
  Cycle:    372 Energy:      -640.798036  Gnorm:      0.115743  CPU:   29.482
  Cycle:    373 Energy:      -640.805242  Gnorm:      0.116176  CPU:   29.588
  Cycle:    374 Energy:      -640.812825  Gnorm:      0.120406  CPU:   29.695
  Cycle:    375 Energy:      -640.822408  Gnorm:      0.099451  CPU:   29.803
  Cycle:    376 Energy:      -640.832834  Gnorm:      0.102210  CPU:   29.934
  Cycle:    377 Energy:      -640.841896  Gnorm:      0.103042  CPU:   30.040
  Cycle:    378 Energy:      -640.847645  Gnorm:      0.104562  CPU:   30.146
  Cycle:    379 Energy:      -640.852941  Gnorm:      0.117767  CPU:   30.253
  Cycle:    380 Energy:      -640.857673  Gnorm:      0.099845  CPU:   30.360
  Cycle:    381 Energy:      -640.863220  Gnorm:      0.099183  CPU:   30.467
  Cycle:    382 Energy:      -640.870612  Gnorm:      0.104035  CPU:   30.573
  Cycle:    383 Energy:      -640.880087  Gnorm:      0.100410  CPU:   30.679
  Cycle:    384 Energy:      -640.889169  Gnorm:      0.111669  CPU:   30.810
  Cycle:    385 Energy:      -640.896136  Gnorm:      0.126433  CPU:   30.916
  Cycle:    386 Energy:      -640.903071  Gnorm:      0.099599  CPU:   31.023
  Cycle:    387 Energy:      -640.912357  Gnorm:      0.101491  CPU:   31.153
  Cycle:    388 Energy:      -640.920834  Gnorm:      0.106597  CPU:   31.260
  Cycle:    389 Energy:      -640.932080  Gnorm:      0.171884  CPU:   31.390
  Cycle:    390 Energy:      -640.941937  Gnorm:      0.118363  CPU:   31.502
  Cycle:    391 Energy:      -640.948425  Gnorm:      0.107030  CPU:   31.610
  Cycle:    392 Energy:      -640.956134  Gnorm:      0.107918  CPU:   31.717
  Cycle:    393 Energy:      -640.963396  Gnorm:      0.107849  CPU:   31.823
  Cycle:    394 Energy:      -640.969943  Gnorm:      0.120266  CPU:   31.929
  Cycle:    395 Energy:      -640.978148  Gnorm:      0.102017  CPU:   32.034
  Cycle:    396 Energy:      -640.986945  Gnorm:      0.100840  CPU:   32.141
  Cycle:    397 Energy:      -640.997044  Gnorm:      0.099325  CPU:   32.247
  Cycle:    398 Energy:      -641.004482  Gnorm:      0.109600  CPU:   32.352
  Cycle:    399 Energy:      -641.009341  Gnorm:      0.103859  CPU:   32.458
  Cycle:    400 Energy:      -641.013057  Gnorm:      0.100491  CPU:   32.564
  Cycle:    401 Energy:      -641.020952  Gnorm:      0.099298  CPU:   32.693
  Cycle:    402 Energy:      -641.028943  Gnorm:      0.111672  CPU:   32.800
  Cycle:    403 Energy:      -641.038413  Gnorm:      0.102135  CPU:   32.906
  Cycle:    404 Energy:      -641.046401  Gnorm:      0.135441  CPU:   33.011
  Cycle:    405 Energy:      -641.053773  Gnorm:      0.106785  CPU:   33.117
  Cycle:    406 Energy:      -641.062457  Gnorm:      0.109209  CPU:   33.246
  Cycle:    407 Energy:      -641.070658  Gnorm:      0.128079  CPU:   33.353
  Cycle:    408 Energy:      -641.078566  Gnorm:      0.112488  CPU:   33.458
  Cycle:    409 Energy:      -641.090645  Gnorm:      0.167795  CPU:   33.588
  Cycle:    410 Energy:      -641.101242  Gnorm:      0.120515  CPU:   33.693
  Cycle:    411 Energy:      -641.108153  Gnorm:      0.115843  CPU:   33.795
  Cycle:    412 Energy:      -641.116351  Gnorm:      0.118241  CPU:   33.896
  Cycle:    413 Energy:      -641.124372  Gnorm:      0.091811  CPU:   33.999
  Cycle:    414 Energy:      -641.132067  Gnorm:      0.137487  CPU:   34.124
  Cycle:    415 Energy:      -641.140118  Gnorm:      0.102865  CPU:   34.226
  Cycle:    416 Energy:      -641.152219  Gnorm:      0.117714  CPU:   34.328
  Cycle:    417 Energy:      -641.159334  Gnorm:      0.126637  CPU:   34.429
  Cycle:    418 Energy:      -641.170409  Gnorm:      0.107120  CPU:   34.556
  Cycle:    419 Energy:      -641.176802  Gnorm:      0.118045  CPU:   34.658
  Cycle:    420 Energy:      -641.182341  Gnorm:      0.103735  CPU:   34.759
  Cycle:    421 Energy:      -641.188073  Gnorm:      0.093531  CPU:   34.885
  Cycle:    422 Energy:      -641.194638  Gnorm:      0.109578  CPU:   35.010
  Cycle:    423 Energy:      -641.202406  Gnorm:      0.099366  CPU:   35.112
  Cycle:    424 Energy:      -641.208314  Gnorm:      0.132203  CPU:   35.214
  Cycle:    425 Energy:      -641.220326  Gnorm:      0.124496  CPU:   35.341
  Cycle:    426 Energy:      -641.238358  Gnorm:      0.137162  CPU:   35.444
  Cycle:    427 Energy:      -641.254205  Gnorm:      0.175322  CPU:   35.573
  Cycle:    428 Energy:      -641.271467  Gnorm:      0.150852  CPU:   35.734
  Cycle:    429 Energy:      -641.281706  Gnorm:      0.170821  CPU:   35.884
  Cycle:    430 Energy:      -641.290267  Gnorm:      0.132523  CPU:   36.048
  Cycle:    431 Energy:      -641.303327  Gnorm:      0.150576  CPU:   36.197
  Cycle:    432 Energy:      -641.316654  Gnorm:      0.126651  CPU:   36.354
  Cycle:    433 Energy:      -641.329632  Gnorm:      0.115406  CPU:   36.544
  Cycle:    434 Energy:      -641.342500  Gnorm:      0.145926  CPU:   36.694
  Cycle:    435 Energy:      -641.349417  Gnorm:      0.105115  CPU:   36.835
  Cycle:    436 Energy:      -641.359800  Gnorm:      0.126267  CPU:   36.975
  Cycle:    437 Energy:      -641.367604  Gnorm:      0.103046  CPU:   37.081
  Cycle:    438 Energy:      -641.374050  Gnorm:      0.117344  CPU:   37.186
  Cycle:    439 Energy:      -641.381776  Gnorm:      0.117978  CPU:   37.315
  Cycle:    440 Energy:      -641.388982  Gnorm:      0.107362  CPU:   37.443
  Cycle:    441 Energy:      -641.393172  Gnorm:      0.085617  CPU:   37.609
  Cycle:    442 Energy:      -641.402684  Gnorm:      0.132157  CPU:   37.768
  Cycle:    443 Energy:      -641.411646  Gnorm:      0.105968  CPU:   37.923
  Cycle:    444 Energy:      -641.418751  Gnorm:      0.135567  CPU:   38.078
  Cycle:    445 Energy:      -641.429224  Gnorm:      0.109891  CPU:   38.227
  Cycle:    446 Energy:      -641.439937  Gnorm:      0.116460  CPU:   38.376
  Cycle:    447 Energy:      -641.449778  Gnorm:      0.151288  CPU:   38.533
  Cycle:    448 Energy:      -641.463730  Gnorm:      0.150845  CPU:   38.725
  Cycle:    449 Energy:      -641.475444  Gnorm:      0.157265  CPU:   38.873
  Cycle:    450 Energy:      -641.483781  Gnorm:      0.111674  CPU:   39.021
  Cycle:    451 Energy:      -641.490895  Gnorm:      0.109611  CPU:   39.170
  Cycle:    452 Energy:      -641.496364  Gnorm:      0.090155  CPU:   39.319
  Cycle:    453 Energy:      -641.502223  Gnorm:      0.091316  CPU:   39.467
  Cycle:    454 Energy:      -641.509101  Gnorm:      0.139905  CPU:   39.615
  Cycle:    455 Energy:      -641.518653  Gnorm:      0.091078  CPU:   39.763
  Cycle:    456 Energy:      -641.542368  Gnorm:      0.175555  CPU:   39.947
  Cycle:    457 Energy:      -641.553770  Gnorm:      0.136896  CPU:   40.096
  Cycle:    458 Energy:      -641.563326  Gnorm:      0.137022  CPU:   40.249
  Cycle:    459 Energy:      -641.573794  Gnorm:      0.110558  CPU:   40.443
  Cycle:    460 Energy:      -641.579531  Gnorm:      0.074738  CPU:   40.592
  Cycle:    461 Energy:      -641.581975  Gnorm:      0.080453  CPU:   40.739
  Cycle:    462 Energy:      -641.591493  Gnorm:      0.113958  CPU:   40.922
  Cycle:    463 Energy:      -641.604160  Gnorm:      0.152095  CPU:   41.112
  Cycle:    464 Energy:      -641.613626  Gnorm:      0.137258  CPU:   41.260
  Cycle:    465 Energy:      -641.625205  Gnorm:      0.124808  CPU:   41.418
  Cycle:    466 Energy:      -641.635583  Gnorm:      0.130984  CPU:   41.567
  Cycle:    467 Energy:      -641.652017  Gnorm:      0.184632  CPU:   41.752
  Cycle:    468 Energy:      -641.675316  Gnorm:      0.236860  CPU:   41.935
  Cycle:    469 Energy:      -641.704761  Gnorm:      0.187095  CPU:   42.082
  Cycle:    470 Energy:      -641.716803  Gnorm:      0.169078  CPU:   42.229
  Cycle:    471 Energy:      -641.738561  Gnorm:      0.144623  CPU:   42.386
  Cycle:    472 Energy:      -641.749262  Gnorm:      0.115178  CPU:   42.534
  Cycle:    473 Energy:      -641.755507  Gnorm:      0.113215  CPU:   42.687
  Cycle:    474 Energy:      -641.763666  Gnorm:      0.119176  CPU:   42.847
  Cycle:    475 Energy:      -641.773163  Gnorm:      0.114821  CPU:   42.994
  Cycle:    476 Energy:      -641.783785  Gnorm:      0.098134  CPU:   43.146
  Cycle:    477 Energy:      -641.791304  Gnorm:      0.124163  CPU:   43.296
  Cycle:    478 Energy:      -641.796380  Gnorm:      0.079056  CPU:   43.446
  Cycle:    479 Energy:      -641.804776  Gnorm:      0.120683  CPU:   43.635
  Cycle:    480 Energy:      -641.809028  Gnorm:      0.072641  CPU:   43.782
  Cycle:    481 Energy:      -641.811537  Gnorm:      0.075701  CPU:   43.934
  Cycle:    482 Energy:      -641.818607  Gnorm:      0.117322  CPU:   44.122
  Cycle:    483 Energy:      -641.828913  Gnorm:      0.126697  CPU:   44.269
  Cycle:    484 Energy:      -641.835900  Gnorm:      0.109110  CPU:   44.419
  Cycle:    485 Energy:      -641.842539  Gnorm:      0.097240  CPU:   44.572
  Cycle:    486 Energy:      -641.848712  Gnorm:      0.092779  CPU:   44.721
  Cycle:    487 Energy:      -641.856276  Gnorm:      0.147865  CPU:   44.910
  Cycle:    488 Energy:      -641.868301  Gnorm:      0.142511  CPU:   45.096
  Cycle:    489 Energy:      -641.880927  Gnorm:      0.136810  CPU:   45.242
  Cycle:    490 Energy:      -641.885847  Gnorm:      0.073272  CPU:   45.392
  Cycle:    491 Energy:      -641.891133  Gnorm:      0.122001  CPU:   45.543
  Cycle:    492 Energy:      -641.897871  Gnorm:      0.068706  CPU:   45.693
  Cycle:    493 Energy:      -641.902068  Gnorm:      0.091685  CPU:   45.843
  Cycle:    494 Energy:      -641.905368  Gnorm:      0.074971  CPU:   45.994
  Cycle:    495 Energy:      -641.910237  Gnorm:      0.096855  CPU:   46.143
  Cycle:    496 Energy:      -641.917070  Gnorm:      0.109719  CPU:   46.332
  Cycle:    497 Energy:      -641.922811  Gnorm:      0.103480  CPU:   46.478
  Cycle:    498 Energy:      -641.929740  Gnorm:      0.110888  CPU:   46.666
  Cycle:    499 Energy:      -641.937958  Gnorm:      0.112925  CPU:   46.812
  Cycle:    500 Energy:      -641.943733  Gnorm:      0.068926  CPU:   46.962
  Cycle:    501 Energy:      -641.945583  Gnorm:      0.059459  CPU:   47.112
  Cycle:    502 Energy:      -641.948093  Gnorm:      0.072293  CPU:   47.261
  Cycle:    503 Energy:      -641.956613  Gnorm:      0.097036  CPU:   47.411
  Cycle:    504 Energy:      -641.960186  Gnorm:      0.098325  CPU:   47.561
  Cycle:    505 Energy:      -641.968537  Gnorm:      0.100126  CPU:   47.710
  Cycle:    506 Energy:      -641.974859  Gnorm:      0.122019  CPU:   47.860
  Cycle:    507 Energy:      -641.990207  Gnorm:      0.143533  CPU:   48.048
  Cycle:    508 Energy:      -641.999788  Gnorm:      0.141113  CPU:   48.194
  Cycle:    509 Energy:      -642.013553  Gnorm:      0.125489  CPU:   48.382
  Cycle:    510 Energy:      -642.020914  Gnorm:      0.140507  CPU:   48.527
  Cycle:    511 Energy:      -642.032436  Gnorm:      0.119763  CPU:   48.715
  Cycle:    512 Energy:      -642.042744  Gnorm:      0.117338  CPU:   48.861
  Cycle:    513 Energy:      -642.049740  Gnorm:      0.104862  CPU:   49.010
  Cycle:    514 Energy:      -642.054594  Gnorm:      0.086446  CPU:   49.159
  Cycle:    515 Energy:      -642.060421  Gnorm:      0.090640  CPU:   49.309
  Cycle:    516 Energy:      -642.066142  Gnorm:      0.079018  CPU:   49.458
  Cycle:    517 Energy:      -642.070394  Gnorm:      0.058558  CPU:   49.609
  Cycle:    518 Energy:      -642.072007  Gnorm:      0.061247  CPU:   49.758
  Cycle:    519 Energy:      -642.074223  Gnorm:      0.063654  CPU:   49.907
  Cycle:    520 Energy:      -642.075733  Gnorm:      0.051315  CPU:   50.056
  Cycle:    521 Energy:      -642.077072  Gnorm:      0.054560  CPU:   50.205
  Cycle:    522 Energy:      -642.080064  Gnorm:      0.081014  CPU:   50.354
  Cycle:    523 Energy:      -642.085496  Gnorm:      0.080154  CPU:   50.503
  Cycle:    524 Energy:      -642.090013  Gnorm:      0.093947  CPU:   50.652
  Cycle:    525 Energy:      -642.093980  Gnorm:      0.079543  CPU:   50.801
  Cycle:    526 Energy:      -642.099242  Gnorm:      0.089006  CPU:   50.950
  Cycle:    527 Energy:      -642.105677  Gnorm:      0.108856  CPU:   51.134
  Cycle:    528 Energy:      -642.114454  Gnorm:      0.124996  CPU:   51.314
  Cycle:    529 Energy:      -642.121511  Gnorm:      0.120899  CPU:   51.459
  Cycle:    530 Energy:      -642.126225  Gnorm:      0.091079  CPU:   51.604
  Cycle:    531 Energy:      -642.131491  Gnorm:      0.090055  CPU:   51.749
  Cycle:    532 Energy:      -642.135519  Gnorm:      0.067764  CPU:   51.894
  Cycle:    533 Energy:      -642.138070  Gnorm:      0.063320  CPU:   52.039
  Cycle:    534 Energy:      -642.140485  Gnorm:      0.072880  CPU:   52.185
  Cycle:    535 Energy:      -642.143026  Gnorm:      0.059450  CPU:   52.330
  Cycle:    536 Energy:      -642.148573  Gnorm:      0.082075  CPU:   52.479
  Cycle:    537 Energy:      -642.154461  Gnorm:      0.062383  CPU:   52.628
  Cycle:    538 Energy:      -642.156482  Gnorm:      0.062692  CPU:   52.777
  Cycle:    539 Energy:      -642.159483  Gnorm:      0.083873  CPU:   52.927
  Cycle:    540 Energy:      -642.161453  Gnorm:      0.053319  CPU:   53.076
  Cycle:    541 Energy:      -642.163189  Gnorm:      0.053402  CPU:   53.226
  Cycle:    542 Energy:      -642.165667  Gnorm:      0.071140  CPU:   53.375
  Cycle:    543 Energy:      -642.172279  Gnorm:      0.087889  CPU:   53.524
  Cycle:    544 Energy:      -642.175032  Gnorm:      0.068269  CPU:   53.673
  Cycle:    545 Energy:      -642.177207  Gnorm:      0.057924  CPU:   53.822
  Cycle:    546 Energy:      -642.179993  Gnorm:      0.056002  CPU:   54.010
  Cycle:    547 Energy:      -642.183466  Gnorm:      0.090882  CPU:   54.155
  Cycle:    548 Energy:      -642.187573  Gnorm:      0.085888  CPU:   54.304
  Cycle:    549 Energy:      -642.192934  Gnorm:      0.103822  CPU:   54.453
  Cycle:    550 Energy:      -642.195436  Gnorm:      0.055943  CPU:   54.602
  Cycle:    551 Energy:      -642.198286  Gnorm:      0.071335  CPU:   54.750
  Cycle:    552 Energy:      -642.201109  Gnorm:      0.053996  CPU:   54.899
  Cycle:    553 Energy:      -642.202788  Gnorm:      0.049628  CPU:   55.048
  Cycle:    554 Energy:      -642.204402  Gnorm:      0.070420  CPU:   55.196
  Cycle:    555 Energy:      -642.207993  Gnorm:      0.074668  CPU:   55.345
  Cycle:    556 Energy:      -642.212504  Gnorm:      0.072453  CPU:   55.494
  Cycle:    557 Energy:      -642.215776  Gnorm:      0.057209  CPU:   55.642
  Cycle:    558 Energy:      -642.218469  Gnorm:      0.067744  CPU:   55.791
  Cycle:    559 Energy:      -642.222144  Gnorm:      0.107513  CPU:   55.940
  Cycle:    560 Energy:      -642.224630  Gnorm:      0.054768  CPU:   56.088
  Cycle:    561 Energy:      -642.226271  Gnorm:      0.047096  CPU:   56.237
  Cycle:    562 Energy:      -642.228361  Gnorm:      0.064261  CPU:   56.386
  Cycle:    563 Energy:      -642.231912  Gnorm:      0.063982  CPU:   56.534
  Cycle:    564 Energy:      -642.235208  Gnorm:      0.067740  CPU:   56.683
  Cycle:    565 Energy:      -642.237125  Gnorm:      0.062325  CPU:   56.832
  Cycle:    566 Energy:      -642.239513  Gnorm:      0.054865  CPU:   56.981
  Cycle:    567 Energy:      -642.241971  Gnorm:      0.074080  CPU:   57.129
  Cycle:    568 Energy:      -642.244537  Gnorm:      0.066487  CPU:   57.279
  Cycle:    569 Energy:      -642.247394  Gnorm:      0.071124  CPU:   57.427
  Cycle:    570 Energy:      -642.248874  Gnorm:      0.046676  CPU:   57.576
  Cycle:    571 Energy:      -642.250935  Gnorm:      0.063675  CPU:   57.725
  Cycle:    572 Energy:      -642.252740  Gnorm:      0.048756  CPU:   57.874
  Cycle:    573 Energy:      -642.255141  Gnorm:      0.056362  CPU:   58.023
  Cycle:    574 Energy:      -642.257108  Gnorm:      0.065067  CPU:   58.172
  Cycle:    575 Energy:      -642.259238  Gnorm:      0.065207  CPU:   58.321
  Cycle:    576 Energy:      -642.262431  Gnorm:      0.070217  CPU:   58.470
  Cycle:    577 Energy:      -642.265713  Gnorm:      0.064938  CPU:   58.619
  Cycle:    578 Energy:      -642.267440  Gnorm:      0.058276  CPU:   58.768
  Cycle:    579 Energy:      -642.270663  Gnorm:      0.074740  CPU:   58.917
  Cycle:    580 Energy:      -642.272987  Gnorm:      0.055642  CPU:   59.065
  Cycle:    581 Energy:      -642.274331  Gnorm:      0.051513  CPU:   59.214
  Cycle:    582 Energy:      -642.276641  Gnorm:      0.066340  CPU:   59.363
  Cycle:    583 Energy:      -642.279866  Gnorm:      0.072745  CPU:   59.512
  Cycle:    584 Energy:      -642.282283  Gnorm:      0.059756  CPU:   59.661
  Cycle:    585 Energy:      -642.283990  Gnorm:      0.055952  CPU:   59.810
  Cycle:    586 Energy:      -642.286167  Gnorm:      0.046602  CPU:   59.959
  Cycle:    587 Energy:      -642.288123  Gnorm:      0.062444  CPU:   60.108
  Cycle:    588 Energy:      -642.289820  Gnorm:      0.053924  CPU:   60.253
  Cycle:    589 Energy:      -642.291613  Gnorm:      0.060504  CPU:   60.398
  Cycle:    590 Energy:      -642.292693  Gnorm:      0.042924  CPU:   60.543
  Cycle:    591 Energy:      -642.294182  Gnorm:      0.058370  CPU:   60.689
  Cycle:    592 Energy:      -642.296015  Gnorm:      0.048843  CPU:   60.834
  Cycle:    593 Energy:      -642.297654  Gnorm:      0.053021  CPU:   60.979
  Cycle:    594 Energy:      -642.299219  Gnorm:      0.057184  CPU:   61.125
  Cycle:    595 Energy:      -642.301152  Gnorm:      0.059110  CPU:   61.270
  Cycle:    596 Energy:      -642.304960  Gnorm:      0.063660  CPU:   61.415
  Cycle:    597 Energy:      -642.307197  Gnorm:      0.057035  CPU:   61.560
  Cycle:    598 Energy:      -642.308836  Gnorm:      0.059310  CPU:   61.706
  Cycle:    599 Energy:      -642.311466  Gnorm:      0.072079  CPU:   61.851
  Cycle:    600 Energy:      -642.313572  Gnorm:      0.051289  CPU:   61.996
  Cycle:    601 Energy:      -642.314969  Gnorm:      0.048646  CPU:   62.141
  Cycle:    602 Energy:      -642.316697  Gnorm:      0.063776  CPU:   62.287
  Cycle:    603 Energy:      -642.319647  Gnorm:      0.058861  CPU:   62.432
  Cycle:    604 Energy:      -642.322137  Gnorm:      0.052080  CPU:   62.581
  Cycle:    605 Energy:      -642.323930  Gnorm:      0.053553  CPU:   62.730
  Cycle:    606 Energy:      -642.324936  Gnorm:      0.043585  CPU:   62.879
  Cycle:    607 Energy:      -642.326979  Gnorm:      0.054708  CPU:   63.029
  Cycle:    608 Energy:      -642.328946  Gnorm:      0.047466  CPU:   63.179
  Cycle:    609 Energy:      -642.330762  Gnorm:      0.070566  CPU:   63.328
  Cycle:    610 Energy:      -642.332095  Gnorm:      0.046134  CPU:   63.477
  Cycle:    611 Energy:      -642.333519  Gnorm:      0.045905  CPU:   63.626
  Cycle:    612 Energy:      -642.335340  Gnorm:      0.047446  CPU:   63.777
  Cycle:    613 Energy:      -642.336495  Gnorm:      0.046658  CPU:   63.928
  Cycle:    614 Energy:      -642.337902  Gnorm:      0.057991  CPU:   64.084
  Cycle:    615 Energy:      -642.339812  Gnorm:      0.052120  CPU:   64.234
  Cycle:    616 Energy:      -642.342227  Gnorm:      0.058463  CPU:   64.416
  Cycle:    617 Energy:      -642.345552  Gnorm:      0.047609  CPU:   64.578
  Cycle:    618 Energy:      -642.346591  Gnorm:      0.051775  CPU:   64.728
  Cycle:    619 Energy:      -642.348622  Gnorm:      0.072281  CPU:   64.877
  Cycle:    620 Energy:      -642.350381  Gnorm:      0.051967  CPU:   65.065
  Cycle:    621 Energy:      -642.351527  Gnorm:      0.046482  CPU:   65.245
  Cycle:    622 Energy:      -642.353488  Gnorm:      0.058745  CPU:   65.389
  Cycle:    623 Energy:      -642.356160  Gnorm:      0.053209  CPU:   65.534
  Cycle:    624 Energy:      -642.357892  Gnorm:      0.043508  CPU:   65.683
  Cycle:    625 Energy:      -642.359584  Gnorm:      0.060819  CPU:   65.831
  Cycle:    626 Energy:      -642.360985  Gnorm:      0.041930  CPU:   65.980
  Cycle:    627 Energy:      -642.362157  Gnorm:      0.048899  CPU:   66.128
  Cycle:    628 Energy:      -642.363608  Gnorm:      0.041786  CPU:   66.277
  Cycle:    629 Energy:      -642.364545  Gnorm:      0.054342  CPU:   66.425
  Cycle:    630 Energy:      -642.365335  Gnorm:      0.037714  CPU:   66.574
  Cycle:    631 Energy:      -642.366377  Gnorm:      0.040936  CPU:   66.722
  Cycle:    632 Energy:      -642.367156  Gnorm:      0.034309  CPU:   66.871
  Cycle:    633 Energy:      -642.368871  Gnorm:      0.062476  CPU:   67.020
  Cycle:    634 Energy:      -642.370652  Gnorm:      0.049966  CPU:   67.169
  Cycle:    635 Energy:      -642.371723  Gnorm:      0.043429  CPU:   67.318
  Cycle:    636 Energy:      -642.373717  Gnorm:      0.063955  CPU:   67.467
  Cycle:    637 Energy:      -642.375896  Gnorm:      0.044081  CPU:   67.616
  Cycle:    638 Energy:      -642.376953  Gnorm:      0.046799  CPU:   67.764
  Cycle:    639 Energy:      -642.378592  Gnorm:      0.067036  CPU:   67.913
  Cycle:    640 Energy:      -642.379756  Gnorm:      0.041612  CPU:   68.062
  Cycle:    641 Energy:      -642.380445  Gnorm:      0.026278  CPU:   68.211
  Cycle:    642 Energy:      -642.381166  Gnorm:      0.040963  CPU:   68.360
  Cycle:    643 Energy:      -642.382759  Gnorm:      0.038969  CPU:   68.508
  Cycle:    644 Energy:      -642.383784  Gnorm:      0.039514  CPU:   68.657
  Cycle:    645 Energy:      -642.386760  Gnorm:      0.069898  CPU:   68.805
  Cycle:    646 Energy:      -642.389835  Gnorm:      0.069775  CPU:   68.954
  Cycle:    647 Energy:      -642.391683  Gnorm:      0.060335  CPU:   69.102
  Cycle:    648 Energy:      -642.393585  Gnorm:      0.052081  CPU:   69.251
  Cycle:    649 Energy:      -642.396822  Gnorm:      0.083044  CPU:   69.400
  Cycle:    650 Energy:      -642.398473  Gnorm:      0.042351  CPU:   69.548
  Cycle:    651 Energy:      -642.399209  Gnorm:      0.031854  CPU:   69.697
  Cycle:    652 Energy:      -642.399721  Gnorm:      0.026727  CPU:   69.845
  Cycle:    653 Energy:      -642.400733  Gnorm:      0.052564  CPU:   70.003
  Cycle:    654 Energy:      -642.403759  Gnorm:      0.072217  CPU:   70.148
  Cycle:    655 Energy:      -642.405304  Gnorm:      0.045202  CPU:   70.293
  Cycle:    656 Energy:      -642.406541  Gnorm:      0.034126  CPU:   70.438
  Cycle:    657 Energy:      -642.407145  Gnorm:      0.035090  CPU:   70.583
  Cycle:    658 Energy:      -642.410470  Gnorm:      0.078676  CPU:   70.728
  Cycle:    659 Energy:      -642.417082  Gnorm:      0.143641  CPU:   70.872
  Cycle:    660 Energy:      -642.421394  Gnorm:      0.072008  CPU:   71.021
  Cycle:    661 Energy:      -642.424051  Gnorm:      0.041957  CPU:   71.169
  Cycle:    662 Energy:      -642.424846  Gnorm:      0.031949  CPU:   71.317
  Cycle:    663 Energy:      -642.425629  Gnorm:      0.026793  CPU:   71.466
  Cycle:    664 Energy:      -642.426218  Gnorm:      0.034745  CPU:   71.614
  Cycle:    665 Energy:      -642.426947  Gnorm:      0.041674  CPU:   71.763
  Cycle:    666 Energy:      -642.428147  Gnorm:      0.049260  CPU:   71.911
  Cycle:    667 Energy:      -642.431088  Gnorm:      0.081942  CPU:   72.098
  Cycle:    668 Energy:      -642.434524  Gnorm:      0.078479  CPU:   72.242
  Cycle:    669 Energy:      -642.437281  Gnorm:      0.067152  CPU:   72.391
  Cycle:    670 Energy:      -642.438189  Gnorm:      0.036194  CPU:   72.539
  Cycle:    671 Energy:      -642.440181  Gnorm:      0.054133  CPU:   72.687
  Cycle:    672 Energy:      -642.441717  Gnorm:      0.039712  CPU:   72.836
  Cycle:    673 Energy:      -642.442628  Gnorm:      0.045883  CPU:   72.981
  Cycle:    674 Energy:      -642.443839  Gnorm:      0.039277  CPU:   73.127
  Cycle:    675 Energy:      -642.444663  Gnorm:      0.033880  CPU:   73.272
  Cycle:    676 Energy:      -642.445516  Gnorm:      0.030611  CPU:   73.416
  Cycle:    677 Energy:      -642.446155  Gnorm:      0.045061  CPU:   73.561
  Cycle:    678 Energy:      -642.447657  Gnorm:      0.048451  CPU:   73.706
  Cycle:    679 Energy:      -642.449591  Gnorm:      0.060812  CPU:   73.851
  Cycle:    680 Energy:      -642.450546  Gnorm:      0.030092  CPU:   73.995
  Cycle:    681 Energy:      -642.451070  Gnorm:      0.035985  CPU:   74.140
  Cycle:    682 Energy:      -642.451728  Gnorm:      0.029699  CPU:   74.285
  Cycle:    683 Energy:      -642.452603  Gnorm:      0.038685  CPU:   74.434
  Cycle:    684 Energy:      -642.453986  Gnorm:      0.048475  CPU:   74.583
  Cycle:    685 Energy:      -642.454977  Gnorm:      0.043312  CPU:   74.731
  Cycle:    686 Energy:      -642.456094  Gnorm:      0.038464  CPU:   74.880
  Cycle:    687 Energy:      -642.457170  Gnorm:      0.046051  CPU:   75.029
  Cycle:    688 Energy:      -642.459371  Gnorm:      0.075761  CPU:   75.177
  Cycle:    689 Energy:      -642.462348  Gnorm:      0.067725  CPU:   75.326
  Cycle:    690 Energy:      -642.464207  Gnorm:      0.059627  CPU:   75.475
  Cycle:    691 Energy:      -642.465853  Gnorm:      0.047804  CPU:   75.623
  Cycle:    692 Energy:      -642.467254  Gnorm:      0.043351  CPU:   75.772
  Cycle:    693 Energy:      -642.468271  Gnorm:      0.038855  CPU:   75.921
  Cycle:    694 Energy:      -642.469067  Gnorm:      0.042440  CPU:   76.069
  Cycle:    695 Energy:      -642.470105  Gnorm:      0.035940  CPU:   76.218
  Cycle:    696 Energy:      -642.471178  Gnorm:      0.035487  CPU:   76.366
  Cycle:    697 Energy:      -642.472132  Gnorm:      0.032298  CPU:   76.515
  Cycle:    698 Energy:      -642.472947  Gnorm:      0.034693  CPU:   76.664
  Cycle:    699 Energy:      -642.473878  Gnorm:      0.041542  CPU:   76.813
  Cycle:    700 Energy:      -642.474519  Gnorm:      0.035296  CPU:   76.961
  Cycle:    701 Energy:      -642.475144  Gnorm:      0.031592  CPU:   77.110
  Cycle:    702 Energy:      -642.475952  Gnorm:      0.036941  CPU:   77.258
  Cycle:    703 Energy:      -642.476862  Gnorm:      0.041958  CPU:   77.407
  Cycle:    704 Energy:      -642.477695  Gnorm:      0.038287  CPU:   77.557
  Cycle:    705 Energy:      -642.478657  Gnorm:      0.036003  CPU:   77.706
  Cycle:    706 Energy:      -642.479589  Gnorm:      0.035417  CPU:   77.854
  Cycle:    707 Energy:      -642.480938  Gnorm:      0.040305  CPU:   78.003
  Cycle:    708 Energy:      -642.482362  Gnorm:      0.053714  CPU:   78.152
  Cycle:    709 Energy:      -642.484117  Gnorm:      0.062988  CPU:   78.300
  Cycle:    710 Energy:      -642.485394  Gnorm:      0.051733  CPU:   78.449
  Cycle:    711 Energy:      -642.486946  Gnorm:      0.038385  CPU:   78.598
  Cycle:    712 Energy:      -642.488227  Gnorm:      0.041562  CPU:   78.746
  Cycle:    713 Energy:      -642.488998  Gnorm:      0.039198  CPU:   78.895
  Cycle:    714 Energy:      -642.489890  Gnorm:      0.039269  CPU:   79.043
  Cycle:    715 Energy:      -642.490699  Gnorm:      0.033070  CPU:   79.192
  Cycle:    716 Energy:      -642.491750  Gnorm:      0.032853  CPU:   79.341
  Cycle:    717 Energy:      -642.492575  Gnorm:      0.029028  CPU:   79.490
  Cycle:    718 Energy:      -642.493273  Gnorm:      0.032368  CPU:   79.638
  Cycle:    719 Energy:      -642.494028  Gnorm:      0.052012  CPU:   79.787
  Cycle:    720 Energy:      -642.494684  Gnorm:      0.031162  CPU:   79.935
  Cycle:    721 Energy:      -642.495316  Gnorm:      0.028530  CPU:   80.084
  Cycle:    722 Energy:      -642.496054  Gnorm:      0.035905  CPU:   80.233
  Cycle:    723 Energy:      -642.496744  Gnorm:      0.040600  CPU:   80.381
  Cycle:    724 Energy:      -642.497579  Gnorm:      0.032382  CPU:   80.530
  Cycle:    725 Energy:      -642.498493  Gnorm:      0.036224  CPU:   80.678
  Cycle:    726 Energy:      -642.499252  Gnorm:      0.037721  CPU:   80.827
  Cycle:    727 Energy:      -642.500191  Gnorm:      0.043355  CPU:   80.975
  Cycle:    728 Energy:      -642.501224  Gnorm:      0.041438  CPU:   81.124
  Cycle:    729 Energy:      -642.502824  Gnorm:      0.053459  CPU:   81.273
  Cycle:    730 Energy:      -642.503761  Gnorm:      0.046974  CPU:   81.421
  Cycle:    731 Energy:      -642.505100  Gnorm:      0.040071  CPU:   81.570
  Cycle:    732 Energy:      -642.506163  Gnorm:      0.039083  CPU:   81.719
  Cycle:    733 Energy:      -642.507159  Gnorm:      0.044099  CPU:   81.867
  Cycle:    734 Energy:      -642.508071  Gnorm:      0.035740  CPU:   82.016
  Cycle:    735 Energy:      -642.508805  Gnorm:      0.029984  CPU:   82.164
  Cycle:    736 Energy:      -642.509547  Gnorm:      0.030384  CPU:   82.313
  Cycle:    737 Energy:      -642.510334  Gnorm:      0.025015  CPU:   82.462
  Cycle:    738 Energy:      -642.510864  Gnorm:      0.032369  CPU:   82.610
  Cycle:    739 Energy:      -642.512155  Gnorm:      0.061351  CPU:   82.758
  Cycle:    740 Energy:      -642.513190  Gnorm:      0.037191  CPU:   82.907
  Cycle:    741 Energy:      -642.513717  Gnorm:      0.026328  CPU:   83.055
  Cycle:    742 Energy:      -642.514239  Gnorm:      0.031730  CPU:   83.204
  Cycle:    743 Energy:      -642.515005  Gnorm:      0.032323  CPU:   83.352
  Cycle:    744 Energy:      -642.515519  Gnorm:      0.031777  CPU:   83.501
  Cycle:    745 Energy:      -642.516153  Gnorm:      0.034044  CPU:   83.650
  Cycle:    746 Energy:      -642.517187  Gnorm:      0.036064  CPU:   83.798
  Cycle:    747 Energy:      -642.518310  Gnorm:      0.039692  CPU:   83.947
  Cycle:    748 Energy:      -642.519292  Gnorm:      0.046222  CPU:   84.096
  Cycle:    749 Energy:      -642.520473  Gnorm:      0.044488  CPU:   84.244
  Cycle:    750 Energy:      -642.521152  Gnorm:      0.036676  CPU:   84.393
  Cycle:    751 Energy:      -642.522229  Gnorm:      0.042842  CPU:   84.542
  Cycle:    752 Energy:      -642.523117  Gnorm:      0.034706  CPU:   84.690
  Cycle:    753 Energy:      -642.524231  Gnorm:      0.035647  CPU:   84.839
  Cycle:    754 Energy:      -642.525031  Gnorm:      0.030935  CPU:   84.987
  Cycle:    755 Energy:      -642.525454  Gnorm:      0.031725  CPU:   85.136
  Cycle:    756 Energy:      -642.526100  Gnorm:      0.030111  CPU:   85.285
  Cycle:    757 Energy:      -642.526645  Gnorm:      0.028028  CPU:   85.433
  Cycle:    758 Energy:      -642.527268  Gnorm:      0.029871  CPU:   85.582
  Cycle:    759 Energy:      -642.528068  Gnorm:      0.056662  CPU:   85.730
  Cycle:    760 Energy:      -642.528783  Gnorm:      0.029551  CPU:   85.879
  Cycle:    761 Energy:      -642.529405  Gnorm:      0.026627  CPU:   86.027
  Cycle:    762 Energy:      -642.529973  Gnorm:      0.031614  CPU:   86.176
  Cycle:    763 Energy:      -642.530679  Gnorm:      0.029846  CPU:   86.324
  Cycle:    764 Energy:      -642.531140  Gnorm:      0.032646  CPU:   86.473
  Cycle:    765 Energy:      -642.531737  Gnorm:      0.034412  CPU:   86.621
  Cycle:    766 Energy:      -642.532753  Gnorm:      0.030291  CPU:   86.770
  Cycle:    767 Energy:      -642.533717  Gnorm:      0.042157  CPU:   86.919
  Cycle:    768 Energy:      -642.534601  Gnorm:      0.035585  CPU:   87.067
  Cycle:    769 Energy:      -642.535257  Gnorm:      0.047395  CPU:   87.216
  Cycle:    770 Energy:      -642.535762  Gnorm:      0.029046  CPU:   87.364
  Cycle:    771 Energy:      -642.536624  Gnorm:      0.039976  CPU:   87.513
  Cycle:    772 Energy:      -642.537469  Gnorm:      0.029296  CPU:   87.662
  Cycle:    773 Energy:      -642.538301  Gnorm:      0.034300  CPU:   87.810
  Cycle:    774 Energy:      -642.538868  Gnorm:      0.029779  CPU:   87.959
  Cycle:    775 Energy:      -642.539320  Gnorm:      0.029543  CPU:   88.107
  Cycle:    776 Energy:      -642.539981  Gnorm:      0.029376  CPU:   88.256
  Cycle:    777 Energy:      -642.540564  Gnorm:      0.029007  CPU:   88.405
  Cycle:    778 Energy:      -642.541055  Gnorm:      0.034848  CPU:   88.553
  Cycle:    779 Energy:      -642.541860  Gnorm:      0.045823  CPU:   88.702
  Cycle:    780 Energy:      -642.542552  Gnorm:      0.031134  CPU:   88.850
  Cycle:    781 Energy:      -642.542918  Gnorm:      0.023283  CPU:   88.999
  Cycle:    782 Energy:      -642.543314  Gnorm:      0.029723  CPU:   89.147
  Cycle:    783 Energy:      -642.544127  Gnorm:      0.031426  CPU:   89.295
  Cycle:    784 Energy:      -642.544574  Gnorm:      0.029506  CPU:   89.444
  Cycle:    785 Energy:      -642.545130  Gnorm:      0.033005  CPU:   89.592
  Cycle:    786 Energy:      -642.546010  Gnorm:      0.028811  CPU:   89.741
  Cycle:    787 Energy:      -642.546703  Gnorm:      0.041420  CPU:   89.889
  Cycle:    788 Energy:      -642.547817  Gnorm:      0.040550  CPU:   90.038
  Cycle:    789 Energy:      -642.548501  Gnorm:      0.038236  CPU:   90.186
  Cycle:    790 Energy:      -642.548965  Gnorm:      0.031499  CPU:   90.334
  Cycle:    791 Energy:      -642.549888  Gnorm:      0.035753  CPU:   90.483
  Cycle:    792 Energy:      -642.550439  Gnorm:      0.026920  CPU:   90.631
  Cycle:    793 Energy:      -642.551333  Gnorm:      0.030234  CPU:   90.780
  Cycle:    794 Energy:      -642.551914  Gnorm:      0.023999  CPU:   90.928
  Cycle:    795 Energy:      -642.552561  Gnorm:      0.038162  CPU:   91.076
  Cycle:    796 Energy:      -642.553218  Gnorm:      0.027799  CPU:   91.225
  Cycle:    797 Energy:      -642.553477  Gnorm:      0.022443  CPU:   91.373
  Cycle:    798 Energy:      -642.554302  Gnorm:      0.044483  CPU:   91.523
  Cycle:    799 Energy:      -642.556448  Gnorm:      0.077809  CPU:   91.709
  Cycle:    800 Energy:      -642.557992  Gnorm:      0.040782  CPU:   91.854
  Cycle:    801 Energy:      -642.558569  Gnorm:      0.024073  CPU:   92.002
  Cycle:    802 Energy:      -642.558825  Gnorm:      0.020176  CPU:   92.151
  Cycle:    803 Energy:      -642.559231  Gnorm:      0.021032  CPU:   92.337
  Cycle:    804 Energy:      -642.559418  Gnorm:      0.022187  CPU:   92.482
  Cycle:    805 Energy:      -642.560108  Gnorm:      0.034572  CPU:   92.630
  Cycle:    806 Energy:      -642.561071  Gnorm:      0.041680  CPU:   92.779
  Cycle:    807 Energy:      -642.562585  Gnorm:      0.050457  CPU:   92.927
  Cycle:    808 Energy:      -642.565185  Gnorm:      0.049284  CPU:   93.115
  Cycle:    809 Energy:      -642.566677  Gnorm:      0.058447  CPU:   93.260
  Cycle:    810 Energy:      -642.567417  Gnorm:      0.032550  CPU:   93.408
  Cycle:    811 Energy:      -642.568443  Gnorm:      0.031758  CPU:   93.557
  Cycle:    812 Energy:      -642.568897  Gnorm:      0.028987  CPU:   93.706
  Cycle:    813 Energy:      -642.569498  Gnorm:      0.038577  CPU:   93.854
  Cycle:    814 Energy:      -642.570329  Gnorm:      0.029138  CPU:   94.002
  Cycle:    815 Energy:      -642.570844  Gnorm:      0.021899  CPU:   94.151
  Cycle:    816 Energy:      -642.571422  Gnorm:      0.028428  CPU:   94.300
  Cycle:    817 Energy:      -642.571756  Gnorm:      0.022934  CPU:   94.448
  Cycle:    818 Energy:      -642.571999  Gnorm:      0.023121  CPU:   94.597
  Cycle:    819 Energy:      -642.573318  Gnorm:      0.061510  CPU:   94.745
  Cycle:    820 Energy:      -642.574252  Gnorm:      0.034410  CPU:   94.894
  Cycle:    821 Energy:      -642.574653  Gnorm:      0.017550  CPU:   95.043
  Cycle:    822 Energy:      -642.574927  Gnorm:      0.019914  CPU:   95.232
  Cycle:    823 Energy:      -642.575323  Gnorm:      0.031518  CPU:   95.377
  Cycle:    824 Energy:      -642.575859  Gnorm:      0.029993  CPU:   95.525
  Cycle:    825 Energy:      -642.576378  Gnorm:      0.030212  CPU:   95.674
  Cycle:    826 Energy:      -642.576980  Gnorm:      0.029068  CPU:   95.822
  Cycle:    827 Energy:      -642.577564  Gnorm:      0.029908  CPU:   95.971
  Cycle:    828 Energy:      -642.578379  Gnorm:      0.043212  CPU:   96.120
  Cycle:    829 Energy:      -642.579707  Gnorm:      0.053456  CPU:   96.268
  Cycle:    830 Energy:      -642.580395  Gnorm:      0.031459  CPU:   96.417
  Cycle:    831 Energy:      -642.580919  Gnorm:      0.028409  CPU:   96.566
  Cycle:    832 Energy:      -642.581513  Gnorm:      0.026828  CPU:   96.714
  Cycle:    833 Energy:      -642.581919  Gnorm:      0.026056  CPU:   96.863
  Cycle:    834 Energy:      -642.582254  Gnorm:      0.025948  CPU:   97.012
  Cycle:    835 Energy:      -642.582804  Gnorm:      0.028399  CPU:   97.161
  Cycle:    836 Energy:      -642.583429  Gnorm:      0.025638  CPU:   97.309
  Cycle:    837 Energy:      -642.584106  Gnorm:      0.021709  CPU:   97.458
  Cycle:    838 Energy:      -642.584559  Gnorm:      0.028673  CPU:   97.607
  Cycle:    839 Energy:      -642.585018  Gnorm:      0.040513  CPU:   97.755
  Cycle:    840 Energy:      -642.585425  Gnorm:      0.027327  CPU:   97.904
  Cycle:    841 Energy:      -642.585859  Gnorm:      0.021759  CPU:   98.052
  Cycle:    842 Energy:      -642.586463  Gnorm:      0.026202  CPU:   98.201
  Cycle:    843 Energy:      -642.587077  Gnorm:      0.027581  CPU:   98.349
  Cycle:    844 Energy:      -642.587603  Gnorm:      0.026133  CPU:   98.498
  Cycle:    845 Energy:      -642.587987  Gnorm:      0.023983  CPU:   98.647
  Cycle:    846 Energy:      -642.588317  Gnorm:      0.027512  CPU:   98.796
  Cycle:    847 Energy:      -642.588850  Gnorm:      0.026785  CPU:   98.944
  Cycle:    848 Energy:      -642.589444  Gnorm:      0.028293  CPU:   99.093
  Cycle:    849 Energy:      -642.590413  Gnorm:      0.056949  CPU:   99.242
  Cycle:    850 Energy:      -642.591201  Gnorm:      0.031712  CPU:   99.390


  **** Maximum number of function calls has been reached ****


  Final enthalpy =    -642.59120110 eV      
  Final Gnorm    =       0.03171237

  Components of enthalpy : 

--------------------------------------------------------------------------------
  Interatomic potentials     =         222.09670949 eV    
  Monopole - monopole (real) =        -504.47746313 eV    
  Monopole - monopole (recip)=        -488.89265024 eV    
  Monopole - monopole (total)=        -993.37011337 eV    
  Pressure*volume            =         128.68220278 eV    
--------------------------------------------------------------------------------
  Total lattice enthalpy     =        -642.59120110 eV    
--------------------------------------------------------------------------------
  Total lattice enthalpy     =          -62000.2280 kJ/(mole unit cells)
--------------------------------------------------------------------------------

  Final fractional coordinates of atoms :

--------------------------------------------------------------------------------
   No.  Atomic        x           y          z          Radius
        Label       (Frac)      (Frac)     (Frac)       (Angs) 
--------------------------------------------------------------------------------
     1  Al    c     0.500000    0.500000    0.308602    0.000000
     2  Al    c     0.495503    0.146545    0.856794    0.000000
     3  Al    c     0.599546    0.222365    0.612798    0.000000
     4  Al    c     0.341861    0.545920    0.520031    0.000000
     5  Al    c     0.800584    0.661000    0.030844    0.000000
     6  Al    c     0.020653    0.271875    0.124189    0.000000
     7  Al    c     0.175450    0.430249    0.922482    0.000000
     8  Al    c     0.256197    0.877955    0.198833    0.000000
     9  Mg    c     0.791830    0.208208    0.356201    0.000000
    10  Mg    c     0.056207    0.854304    0.464874    0.000000
    11  Mg    c     0.882986    0.855464    0.744593    0.000000
    12  Mg    c     0.208997    0.539649    0.723615    0.000000
    13  O     c     0.011751    0.632330    0.855138    0.000000
    14  O     c     0.022543    0.969474    0.321540    0.000000
    15  O     c     0.113361    0.010759    0.136459    0.000000
    16  O     c     0.548968    0.778111    0.084290    0.000000
    17  O     c     0.808441    0.074157    0.528201    0.000000
    18  O     c     0.107934    0.717045    0.609935    0.000000
    19  O     c     0.548046    0.380879    0.435899    0.000000
    20  O     c     0.298935    0.669716    0.416723    0.000000
    21  O     c     0.668780    0.947583    0.885757    0.000000
    22  O     c     0.945781    0.450832    0.033878    0.000000
    23  O     c     0.361560    0.339656    0.792848    0.000000
    24  O     c     0.652002    0.096216    0.719834    0.000000
    25  O     c     0.321094    0.611570    0.246840    0.000000
    26  O     c     0.716053    0.341483    0.226213    0.000000
    27  O     c     0.309061    0.226964    0.969430    0.000000
    28  O     c     0.412761    0.407535    0.615862    0.000000
--------------------------------------------------------------------------------

  Final Cartesian lattice vectors (Angstroms) :

        4.382147   -1.898532    0.518006
       -1.898532    4.433124   -0.241399
        1.140100   -0.531306   13.165594


  Final cell parameters and derivatives :

--------------------------------------------------------------------------------
       a            4.803745 Angstrom     dE/de1(xx)    -0.055255 eV/strain
       b            4.828590 Angstrom     dE/de2(yy)     0.030293 eV/strain
       c           13.225543 Angstrom     dE/de3(zz)    -0.016412 eV/strain
       alpha       96.923498 Degrees      dE/de4(yz)    -0.201223 eV/strain
       beta        78.354213 Degrees      dE/de5(xz)    -0.079952 eV/strain
       gamma      136.628741 Degrees      dE/de6(xy)    -0.089411 eV/strain
--------------------------------------------------------------------------------

  Primitive cell volume =           206.173210 Angs**3

  Density of cell =      4.583498 g/cm**3

  Non-primitive cell volume =           206.173210 Angs**3


  Final internal derivatives :

--------------------------------------------------------------------------------
   No.  Atomic          a             b             c           Radius
        Label          (eV)          (eV)          (eV)        (eV/Angs)
--------------------------------------------------------------------------------
      1 Al    c       0.000000      0.000000      0.000000      0.000000
      2 Al    c       0.180908      0.066695     -0.395895      0.000000
      3 Al    c       0.394824     -0.216592      0.413039      0.000000
      4 Al    c       0.160696     -0.029298      0.763692      0.000000
      5 Al    c      -0.024894      0.273846      0.037880      0.000000
      6 Al    c      -0.192386      0.445909     -0.660286      0.000000
      7 Al    c       0.148860      0.110235      0.105277      0.000000
      8 Al    c       0.048699     -0.027112     -1.128679      0.000000
      9 Mg    c       0.117993     -0.024080     -0.095525      0.000000
     10 Mg    c      -0.179813      0.088048      0.659713      0.000000
     11 Mg    c      -0.077740      0.391191      0.026189      0.000000
     12 Mg    c       0.005575      0.173761      0.644878      0.000000
     13 O     c       0.265424      0.004571     -0.269726      0.000000
     14 O     c       0.269122     -0.282502     -0.127697      0.000000
     15 O     c       0.219476     -0.130426      0.019551      0.000000
     16 O     c       0.082984      0.103040      0.375171      0.000000
     17 O     c       0.068086     -0.037292     -0.667787      0.000000
     18 O     c       0.192874     -0.087257     -0.525316      0.000000
     19 O     c       0.225360      0.010639     -0.002290      0.000000
     20 O     c      -0.252168      0.356321     -0.228065      0.000000
     21 O     c       0.282911     -0.053669      0.170345      0.000000
     22 O     c       0.008507      0.297482      0.285396      0.000000
     23 O     c       0.087820      0.185043     -0.118348      0.000000
     24 O     c      -0.293358      0.547689      0.166148      0.000000
     25 O     c      -0.018030     -0.028088      0.083567      0.000000
     26 O     c       0.226042     -0.185415      0.530193      0.000000
     27 O     c       0.117115      0.093056      0.512511      0.000000
     28 O     c      -0.205953      0.300962     -0.231289      0.000000
--------------------------------------------------------------------------------
  Maximum abs         0.394824      0.547689      1.128679      0.000000
--------------------------------------------------------------------------------


  Time to end of optimisation =      99.3909 seconds


  Peak dynamic memory used =       1.90 MB 


  Timing analysis for GULP :

--------------------------------------------------------------------------------
  Task / Subroutine                                          Time (Seconds)
--------------------------------------------------------------------------------
  Calculation of reciprocal space energy and derivatives          2.4033
  Calculation of real space energy and derivatives               96.7817
  Global summation overhead                                       0.0055
--------------------------------------------------------------------------------
  Total CPU time                                                 99.3909
--------------------------------------------------------------------------------


  Job Finished at 15:50.02 11th June       2024                               

