********************************************************************************
*                       GENERAL UTILITY LATTICE PROGRAM                        *
*                                 Julian Gale                                  *
*                       Curtin Institute for Computation                       *
*                    School of Molecular and Life Sciences                     *
*                    Curtin University, Western Australia                      *
********************************************************************************
* Version = 6.0.0 * Last modified =  12th July 2021                            *
********************************************************************************
*  optimise     - perform optimisation run                                     *
*  conp         - constant pressure calculation                                *
*  nosymmetry   - turn off symmetry after initial structure generation         *
*  conjugate    - use conjugate gradients minimiser                            *
********************************************************************************

  Job Started  at 15:46.17 11th June       2024                               

  Number of CPUs =     1


  Total number of configurations input =      1

********************************************************************************
*  Input for Configuration =   1                                               *
********************************************************************************

  Formula = Al8Mg4O16                                                   

  Number of irreducible atoms/shells =      28


  Total number atoms/shells =      28

  Dimensionality = 3               :  Bulk   



  Cartesian lattice vectors (Angstroms) :

       10.541253    0.000000    0.000000
        0.000000    3.714763    0.000000
        0.000000    0.000000    6.739148

  Cell parameters (Angstroms/Degrees):

  a =      10.5413    alpha =  90.0000
  b =       3.7148    beta  =  90.0000
  c =       6.7391    gamma =  90.0000

  Initial cell volume =         263.893298 Angs**3

  Temperature of configuration =   0.00     K 

  Pressure of configuration =       100.000 GPa 

  Fractional coordinates of asymmetric unit :

--------------------------------------------------------------------------------
   No.  Atomic       x           y          z         Charge      Occupancy
        Label      (Frac)      (Frac)     (Frac)        (e)         (Frac)  
--------------------------------------------------------------------------------
      1 Al    c    0.001034    0.790381    0.466967     3.00000    1.000000    
      2 Al    c    0.498966 *  0.209619 *  0.466967 *   3.00000    1.000000    
      3 Al    c    0.498966 *  0.290381 *  0.033033 *   3.00000    1.000000    
      4 Al    c    0.001034 *  0.709619 *  0.033033 *   3.00000    1.000000    
      5 Al    c    0.998966 *  0.209619 *  0.533033 *   3.00000    1.000000    
      6 Al    c    0.501034 *  0.790381 *  0.533033 *   3.00000    1.000000    
      7 Al    c    0.501034 *  0.709619 *  0.966967 *   3.00000    1.000000    
      8 Al    c    0.998966 *  0.290381 *  0.966967 *   3.00000    1.000000    
      9 Mg    c    0.250000 *  0.000000 *  0.507170 *   2.00000    1.000000    
     10 Mg    c    0.250000 *  0.500000 *  0.992830 *   2.00000    1.000000    
     11 Mg    c    0.750000 *  0.000000 *  0.492830 *   2.00000    1.000000    
     12 Mg    c    0.750000 *  0.500000 *  0.007170 *   2.00000    1.000000    
     13 O     c    0.000000 *  0.000000 *  0.000000 *  -2.00000    1.000000    
     14 O     c    0.500000 *  0.000000 *  0.000000 *  -2.00000    1.000000    
     15 O     c    0.500000 *  0.500000 *  0.500000 *  -2.00000    1.000000    
     16 O     c    0.000000 *  0.500000 *  0.500000 *  -2.00000    1.000000    
     17 O     c    0.585030 *  0.038643 *  0.276768 *  -2.00000    1.000000    
     18 O     c    0.914970 *  0.961357 *  0.276768 *  -2.00000    1.000000    
     19 O     c    0.914970 *  0.538643 *  0.223232 *  -2.00000    1.000000    
     20 O     c    0.585030 *  0.461357 *  0.223232 *  -2.00000    1.000000    
     21 O     c    0.414970 *  0.961357 *  0.723232 *  -2.00000    1.000000    
     22 O     c    0.085030 *  0.038643 *  0.723232 *  -2.00000    1.000000    
     23 O     c    0.085030 *  0.461357 *  0.776768 *  -2.00000    1.000000    
     24 O     c    0.414970 *  0.538643 *  0.776768 *  -2.00000    1.000000    
     25 O     c    0.165709 *  0.250000 *  0.250000 *  -2.00000    1.000000    
     26 O     c    0.334291 *  0.750000 *  0.250000 *  -2.00000    1.000000    
     27 O     c    0.834291 *  0.750000 *  0.750000 *  -2.00000    1.000000    
     28 O     c    0.665709 *  0.250000 *  0.750000 *  -2.00000    1.000000    
--------------------------------------------------------------------------------



********************************************************************************
*  General input information                                                   *
********************************************************************************

  Species output for all configurations : 

--------------------------------------------------------------------------------
  Species    Type    Atomic    Atomic    Charge       Radii (Angs)     Library
                     Number     Mass       (e)     Cova   Ionic  VDW   Symbol
--------------------------------------------------------------------------------
    Mg       Core       12      24.31   2.000000   1.100  0.000  1.640          
    Al       Core       13      26.98   3.000000   1.350  0.000  2.050          
    O        Core        8      16.00  -2.000000   0.730  0.000  1.360          
--------------------------------------------------------------------------------


  Lattice summation method               =    Ewald          (3-D)
                                         =    Parry          (2-D)
                                         =    Saunders et al (1-D)
  Accuracy factor for lattice sums       =   12.000


  Analytic derivatives to be used

  Time limit = Infinity

  Maximum range for interatomic potentials =    100000.000000 Angstroms

  General interatomic potentials :

--------------------------------------------------------------------------------
Atom  Types   Potential      Parameter       Value         Units   Cutoffs(Ang)
  1     2                                                            Min /  Max 
--------------------------------------------------------------------------------
O    c Mg   c Lennard       Lennard-Jones A  1.5000000    eV*Ang^m  0.000  6.000
                            Lennard-Jones B  0.0000000    eV*Ang^n  
                            Exponent m        12          None
                            Exponent n         6          None
--------------------------------------------------------------------------------
O    c Al   c Lennard       Lennard-Jones A  1.5000000    eV*Ang^m  0.000  6.000
                            Lennard-Jones B  0.0000000    eV*Ang^n  
                            Exponent m        12          None
                            Exponent n         6          None
--------------------------------------------------------------------------------
O    c O    c Lennard       Lennard-Jones A  1.5000000    eV*Ang^m  0.000  6.000
                            Lennard-Jones B  0.0000000    eV*Ang^n  
                            Exponent m        12          None
                            Exponent n         6          None
--------------------------------------------------------------------------------
Mg   c Mg   c Lennard       Lennard-Jones A  1.5000000    eV*Ang^m  0.000  6.000
                            Lennard-Jones B  0.0000000    eV*Ang^n  
                            Exponent m        12          None
                            Exponent n         6          None
--------------------------------------------------------------------------------
Mg   c Al   c Lennard       Lennard-Jones A  1.5000000    eV*Ang^m  0.000  6.000
                            Lennard-Jones B  0.0000000    eV*Ang^n  
                            Exponent m        12          None
                            Exponent n         6          None
--------------------------------------------------------------------------------
Al   c Al   c Lennard       Lennard-Jones A  1.5000000    eV*Ang^m  0.000  6.000
                            Lennard-Jones B  0.0000000    eV*Ang^n  
                            Exponent m        12          None
                            Exponent n         6          None
--------------------------------------------------------------------------------
O    c Mg   c Buckingham    Buckingham A     1428.5000    eV        0.000  7.000
                            Buckingham rho  0.29450000    Ang       
                            Buckingham C     0.0000000    eV*Ang^6  
--------------------------------------------------------------------------------
O    c Al   c Buckingham    Buckingham A     1114.9000    eV        0.000  7.000
                            Buckingham rho  0.31180000    Ang       
                            Buckingham C     0.0000000    eV*Ang^6  
--------------------------------------------------------------------------------
O    c O    c Buckingham    Buckingham A     2023.8000    eV        0.000  7.000
                            Buckingham rho  0.26740000    Ang       
                            Buckingham C     0.0000000    eV*Ang^6  
--------------------------------------------------------------------------------

********************************************************************************
*  Output for configuration   1                                                *
********************************************************************************


  Components of enthalpy : 

--------------------------------------------------------------------------------
  Interatomic potentials     =         379.37728889 eV    
  Monopole - monopole (real) =        -465.32012087 eV    
  Monopole - monopole (recip)=        -449.01590404 eV    
  Monopole - monopole (total)=        -914.33602492 eV    
  Pressure*volume            =         164.70796970 eV    
--------------------------------------------------------------------------------
  Total lattice enthalpy     =        -370.25076633 eV    
--------------------------------------------------------------------------------
  Total lattice enthalpy     =          -35723.5391 kJ/(mole unit cells)
--------------------------------------------------------------------------------


  Number of variables =       87

  Maximum number of calculations  =           850
  Maximum Hessian update interval =            10
  Maximum step size               =   1.000000000
  Maximum parameter tolerance     =   0.000010000
  Maximum function  tolerance     =   0.000010000
  Maximum gradient  tolerance     =   0.001000000
  Maximum gradient  component     =   0.010000000

  Cell parameters to be optimised using strains

  Conjugate gradient optimiser to be used

  Lower half triangular hessian to be used

  Minimiser to switch to RFO
  When gradient norm is less than     0.010000

  Start of bulk optimisation :

  Cycle:      0 Energy:      -370.250766  Gnorm:     11.604288  CPU:    0.031
  Cycle:      1 Energy:      -488.338590  Gnorm:      5.340300  CPU:    0.087
  Cycle:      2 Energy:      -511.879568  Gnorm:      3.694463  CPU:    0.130
  Cycle:      3 Energy:      -531.877135  Gnorm:      4.071445  CPU:    0.172
  Cycle:      4 Energy:      -541.306092  Gnorm:      3.133381  CPU:    0.207
  Cycle:      5 Energy:      -555.450816  Gnorm:      2.947975  CPU:    0.249
  Cycle:      6 Energy:      -562.939119  Gnorm:      2.731672  CPU:    0.284
  Cycle:      7 Energy:      -570.153520  Gnorm:      1.866890  CPU:    0.326
  Cycle:      8 Energy:      -575.637784  Gnorm:      1.743104  CPU:    0.368
  Cycle:      9 Energy:      -579.158240  Gnorm:      1.474435  CPU:    0.402
  Cycle:     10 Energy:      -581.568142  Gnorm:      1.228982  CPU:    0.437
  Cycle:     11 Energy:      -582.993675  Gnorm:      0.844089  CPU:    0.472
  Cycle:     12 Energy:      -584.212943  Gnorm:      0.915758  CPU:    0.515
  Cycle:     13 Energy:      -587.899251  Gnorm:      1.588327  CPU:    0.558
  Cycle:     14 Energy:      -590.304211  Gnorm:      1.569258  CPU:    0.593
  Cycle:     15 Energy:      -594.478799  Gnorm:      1.351908  CPU:    0.636
  Cycle:     16 Energy:      -596.382564  Gnorm:      1.384269  CPU:    0.672
  Cycle:     17 Energy:      -599.130593  Gnorm:      1.487690  CPU:    0.715
  Cycle:     18 Energy:      -604.552695  Gnorm:      1.641956  CPU:    0.777
  Cycle:     19 Energy:      -608.990806  Gnorm:      2.349489  CPU:    0.826
  Cycle:     20 Energy:      -612.245436  Gnorm:      1.582739  CPU:    0.885
  Cycle:     21 Energy:      -617.407139  Gnorm:      1.470859  CPU:    0.967
  Cycle:     22 Energy:      -621.382057  Gnorm:      1.301643  CPU:    1.056
  Cycle:     23 Energy:      -624.024976  Gnorm:      1.409975  CPU:    1.144
  Cycle:     24 Energy:      -626.530936  Gnorm:      1.448268  CPU:    1.215
  Cycle:     25 Energy:      -629.727061  Gnorm:      1.217725  CPU:    1.302
  Cycle:     26 Energy:      -631.614832  Gnorm:      1.063802  CPU:    1.374
  Cycle:     27 Energy:      -632.970328  Gnorm:      0.781763  CPU:    1.462
  Cycle:     28 Energy:      -634.217073  Gnorm:      0.875406  CPU:    1.550
  Cycle:     29 Energy:      -635.358681  Gnorm:      0.828037  CPU:    1.622
  Cycle:     30 Energy:      -635.959225  Gnorm:      0.623747  CPU:    1.693
  Cycle:     31 Energy:      -636.528747  Gnorm:      0.414661  CPU:    1.782
  Cycle:     32 Energy:      -637.018692  Gnorm:      0.472111  CPU:    1.870
  Cycle:     33 Energy:      -637.494586  Gnorm:      0.479524  CPU:    1.941
  Cycle:     34 Energy:      -637.710686  Gnorm:      0.297942  CPU:    2.014
  Cycle:     35 Energy:      -637.904884  Gnorm:      0.327030  CPU:    2.085
  Cycle:     36 Energy:      -638.023540  Gnorm:      0.265435  CPU:    2.135
  Cycle:     37 Energy:      -638.218344  Gnorm:      0.275391  CPU:    2.196
  Cycle:     38 Energy:      -638.385309  Gnorm:      0.309469  CPU:    2.246
  Cycle:     39 Energy:      -638.511150  Gnorm:      0.281552  CPU:    2.296
  Cycle:     40 Energy:      -638.580649  Gnorm:      0.233459  CPU:    2.345
  Cycle:     41 Energy:      -638.693832  Gnorm:      0.208330  CPU:    2.405
  Cycle:     42 Energy:      -638.783453  Gnorm:      0.196996  CPU:    2.465
  Cycle:     43 Energy:      -638.883885  Gnorm:      0.275342  CPU:    2.524
  Cycle:     44 Energy:      -639.062795  Gnorm:      0.352047  CPU:    2.584
  Cycle:     45 Energy:      -639.465101  Gnorm:      0.569369  CPU:    2.644
  Cycle:     46 Energy:      -639.791308  Gnorm:      0.455125  CPU:    2.693
  Cycle:     47 Energy:      -640.186323  Gnorm:      0.523186  CPU:    2.754
  Cycle:     48 Energy:      -640.661632  Gnorm:      0.598076  CPU:    2.813
  Cycle:     49 Energy:      -641.148121  Gnorm:      0.547787  CPU:    2.861
  Cycle:     50 Energy:      -641.364798  Gnorm:      0.370364  CPU:    2.910
  Cycle:     51 Energy:      -641.561902  Gnorm:      0.359111  CPU:    2.969
  Cycle:     52 Energy:      -641.771162  Gnorm:      0.349176  CPU:    3.028
  Cycle:     53 Energy:      -642.334619  Gnorm:      0.460329  CPU:    3.088
  Cycle:     54 Energy:      -642.655217  Gnorm:      0.431509  CPU:    3.137
  Cycle:     55 Energy:      -642.915132  Gnorm:      0.447470  CPU:    3.186
  Cycle:     56 Energy:      -643.173012  Gnorm:      0.363976  CPU:    3.247
  Cycle:     57 Energy:      -643.389550  Gnorm:      0.354295  CPU:    3.308
  Cycle:     58 Energy:      -643.520526  Gnorm:      0.322775  CPU:    3.362
  Cycle:     59 Energy:      -643.642080  Gnorm:      0.281668  CPU:    3.426
  Cycle:     60 Energy:      -643.708074  Gnorm:      0.224740  CPU:    3.476
  Cycle:     61 Energy:      -643.776789  Gnorm:      0.242917  CPU:    3.540
  Cycle:     62 Energy:      -643.854091  Gnorm:      0.212829  CPU:    3.600
  Cycle:     63 Energy:      -643.939632  Gnorm:      0.237501  CPU:    3.665
  Cycle:     64 Energy:      -644.010793  Gnorm:      0.234447  CPU:    3.720
  Cycle:     65 Energy:      -644.183676  Gnorm:      0.323976  CPU:    3.784
  Cycle:     66 Energy:      -644.400878  Gnorm:      0.346229  CPU:    3.834
  Cycle:     67 Energy:      -644.714256  Gnorm:      0.436338  CPU:    3.899
  Cycle:     68 Energy:      -644.926692  Gnorm:      0.430379  CPU:    3.949
  Cycle:     69 Energy:      -645.155821  Gnorm:      0.358522  CPU:    4.012
  Cycle:     70 Energy:      -645.281234  Gnorm:      0.338145  CPU:    4.062
  Cycle:     71 Energy:      -645.444580  Gnorm:      0.352166  CPU:    4.125
  Cycle:     72 Energy:      -645.633055  Gnorm:      0.269783  CPU:    4.187
  Cycle:     73 Energy:      -645.788178  Gnorm:      0.263822  CPU:    4.250
  Cycle:     74 Energy:      -645.883656  Gnorm:      0.249941  CPU:    4.302
  Cycle:     75 Energy:      -645.960593  Gnorm:      0.246353  CPU:    4.354
  Cycle:     76 Energy:      -646.086609  Gnorm:      0.279317  CPU:    4.417
  Cycle:     77 Energy:      -646.182904  Gnorm:      0.285968  CPU:    4.468
  Cycle:     78 Energy:      -646.284762  Gnorm:      0.255010  CPU:    4.536
  Cycle:     79 Energy:      -646.419506  Gnorm:      0.274702  CPU:    4.599
  Cycle:     80 Energy:      -646.491032  Gnorm:      0.199592  CPU:    4.651
  Cycle:     81 Energy:      -646.545715  Gnorm:      0.212620  CPU:    4.714
  Cycle:     82 Energy:      -646.604773  Gnorm:      0.203672  CPU:    4.777
  Cycle:     83 Energy:      -646.674620  Gnorm:      0.177032  CPU:    4.841
  Cycle:     84 Energy:      -646.712097  Gnorm:      0.171571  CPU:    4.893
  Cycle:     85 Energy:      -646.758018  Gnorm:      0.170546  CPU:    4.956
  Cycle:     86 Energy:      -646.821052  Gnorm:      0.168992  CPU:    5.021
  Cycle:     87 Energy:      -646.888369  Gnorm:      0.200298  CPU:    5.087
  Cycle:     88 Energy:      -646.948498  Gnorm:      0.236668  CPU:    5.140
  Cycle:     89 Energy:      -647.013210  Gnorm:      0.209039  CPU:    5.195
  Cycle:     90 Energy:      -647.055397  Gnorm:      0.173600  CPU:    5.249
  Cycle:     91 Energy:      -647.089674  Gnorm:      0.154806  CPU:    5.320
  Cycle:     92 Energy:      -647.124556  Gnorm:      0.128492  CPU:    5.386
  Cycle:     93 Energy:      -647.157678  Gnorm:      0.123496  CPU:    5.453
  Cycle:     94 Energy:      -647.186613  Gnorm:      0.119760  CPU:    5.517
  Cycle:     95 Energy:      -647.204359  Gnorm:      0.122339  CPU:    5.572
  Cycle:     96 Energy:      -647.228402  Gnorm:      0.113320  CPU:    5.635
  Cycle:     97 Energy:      -647.252912  Gnorm:      0.111765  CPU:    5.703
  Cycle:     98 Energy:      -647.266371  Gnorm:      0.106757  CPU:    5.757
  Cycle:     99 Energy:      -647.287107  Gnorm:      0.140259  CPU:    5.824
  Cycle:    100 Energy:      -647.302695  Gnorm:      0.089784  CPU:    5.875
  Cycle:    101 Energy:      -647.312171  Gnorm:      0.090925  CPU:    5.930
  Cycle:    102 Energy:      -647.327656  Gnorm:      0.094361  CPU:    5.993
  Cycle:    103 Energy:      -647.341855  Gnorm:      0.089389  CPU:    6.049
  Cycle:    104 Energy:      -647.352798  Gnorm:      0.090902  CPU:    6.100
  Cycle:    105 Energy:      -647.365359  Gnorm:      0.089955  CPU:    6.153
  Cycle:    106 Energy:      -647.382512  Gnorm:      0.085154  CPU:    6.216
  Cycle:    107 Energy:      -647.397601  Gnorm:      0.101238  CPU:    6.280
  Cycle:    108 Energy:      -647.408951  Gnorm:      0.100765  CPU:    6.331
  Cycle:    109 Energy:      -647.426265  Gnorm:      0.105072  CPU:    6.395
  Cycle:    110 Energy:      -647.439660  Gnorm:      0.082574  CPU:    6.446
  Cycle:    111 Energy:      -647.448100  Gnorm:      0.086065  CPU:    6.498
  Cycle:    112 Energy:      -647.457390  Gnorm:      0.068570  CPU:    6.561
  Cycle:    113 Energy:      -647.466890  Gnorm:      0.068569  CPU:    6.612
  Cycle:    114 Energy:      -647.475449  Gnorm:      0.060804  CPU:    6.675
  Cycle:    115 Energy:      -647.481382  Gnorm:      0.066526  CPU:    6.729
  Cycle:    116 Energy:      -647.487211  Gnorm:      0.062495  CPU:    6.780
  Cycle:    117 Energy:      -647.494996  Gnorm:      0.051387  CPU:    6.843
  Cycle:    118 Energy:      -647.499988  Gnorm:      0.057598  CPU:    6.906
  Cycle:    119 Energy:      -647.524993  Gnorm:      0.133454  CPU:    6.971
  Cycle:    120 Energy:      -647.538231  Gnorm:      0.055852  CPU:    7.038
  Cycle:    121 Energy:      -647.543081  Gnorm:      0.055942  CPU:    7.089
  Cycle:    122 Energy:      -647.546228  Gnorm:      0.048911  CPU:    7.141
  Cycle:    123 Energy:      -647.550539  Gnorm:      0.045905  CPU:    7.195
  Cycle:    124 Energy:      -647.553852  Gnorm:      0.045245  CPU:    7.247
  Cycle:    125 Energy:      -647.556813  Gnorm:      0.049478  CPU:    7.298
  Cycle:    126 Energy:      -647.560536  Gnorm:      0.038960  CPU:    7.351
  Cycle:    127 Energy:      -647.564666  Gnorm:      0.048750  CPU:    7.403
  Cycle:    128 Energy:      -647.568995  Gnorm:      0.037920  CPU:    7.454
  Cycle:    129 Energy:      -647.571774  Gnorm:      0.046170  CPU:    7.507
  Cycle:    130 Energy:      -647.573291  Gnorm:      0.034244  CPU:    7.558
  Cycle:    131 Energy:      -647.575328  Gnorm:      0.041019  CPU:    7.609
  Cycle:    132 Energy:      -647.579333  Gnorm:      0.036621  CPU:    7.672
  Cycle:    133 Energy:      -647.581670  Gnorm:      0.035360  CPU:    7.724
  Cycle:    134 Energy:      -647.583861  Gnorm:      0.036535  CPU:    7.780
  Cycle:    135 Energy:      -647.585524  Gnorm:      0.034873  CPU:    7.832
  Cycle:    136 Energy:      -647.587742  Gnorm:      0.031348  CPU:    7.884
  Cycle:    137 Energy:      -647.589844  Gnorm:      0.033680  CPU:    7.941
  Cycle:    138 Energy:      -647.591861  Gnorm:      0.043303  CPU:    7.993
  Cycle:    139 Energy:      -647.594414  Gnorm:      0.049960  CPU:    8.045
  Cycle:    140 Energy:      -647.596431  Gnorm:      0.036679  CPU:    8.098
  Cycle:    141 Energy:      -647.597871  Gnorm:      0.028857  CPU:    8.151
  Cycle:    142 Energy:      -647.599294  Gnorm:      0.026889  CPU:    8.202
  Cycle:    143 Energy:      -647.600731  Gnorm:      0.027859  CPU:    8.254
  Cycle:    144 Energy:      -647.601860  Gnorm:      0.027875  CPU:    8.305
  Cycle:    145 Energy:      -647.602995  Gnorm:      0.027464  CPU:    8.357
  Cycle:    146 Energy:      -647.604198  Gnorm:      0.023306  CPU:    8.408
  Cycle:    147 Energy:      -647.605817  Gnorm:      0.027354  CPU:    8.460
  Cycle:    148 Energy:      -647.606848  Gnorm:      0.026604  CPU:    8.513
  Cycle:    149 Energy:      -647.607545  Gnorm:      0.023832  CPU:    8.564
  Cycle:    150 Energy:      -647.608101  Gnorm:      0.022542  CPU:    8.616
  Cycle:    151 Energy:      -647.608862  Gnorm:      0.025006  CPU:    8.667
  Cycle:    152 Energy:      -647.610169  Gnorm:      0.020828  CPU:    8.719
  Cycle:    153 Energy:      -647.611084  Gnorm:      0.022158  CPU:    8.771
  Cycle:    154 Energy:      -647.611749  Gnorm:      0.020407  CPU:    8.824
  Cycle:    155 Energy:      -647.612366  Gnorm:      0.021753  CPU:    8.875
  Cycle:    156 Energy:      -647.613161  Gnorm:      0.019083  CPU:    8.927
  Cycle:    157 Energy:      -647.613766  Gnorm:      0.020094  CPU:    8.978
  Cycle:    158 Energy:      -647.614278  Gnorm:      0.021823  CPU:    9.032
  Cycle:    159 Energy:      -647.615140  Gnorm:      0.027432  CPU:    9.084
  Cycle:    160 Energy:      -647.615890  Gnorm:      0.019324  CPU:    9.136
  Cycle:    161 Energy:      -647.616297  Gnorm:      0.017924  CPU:    9.189
  Cycle:    162 Energy:      -647.616758  Gnorm:      0.016529  CPU:    9.252
  Cycle:    163 Energy:      -647.617300  Gnorm:      0.017282  CPU:    9.304
  Cycle:    164 Energy:      -647.617687  Gnorm:      0.015832  CPU:    9.357
  Cycle:    165 Energy:      -647.618066  Gnorm:      0.016582  CPU:    9.409
  Cycle:    166 Energy:      -647.618541  Gnorm:      0.014364  CPU:    9.461
  Cycle:    167 Energy:      -647.619145  Gnorm:      0.015010  CPU:    9.512
  Cycle:    168 Energy:      -647.619533  Gnorm:      0.011100  CPU:    9.564
  Cycle:    169 Energy:      -647.620891  Gnorm:      0.026165  CPU:    9.639
  Cycle:    170 Energy:      -647.621612  Gnorm:      0.017978  CPU:    9.692
  Cycle:    171 Energy:      -647.621941  Gnorm:      0.012567  CPU:    9.743
  Cycle:    172 Energy:      -647.622128  Gnorm:      0.011655  CPU:    9.795
  Cycle:    173 Energy:      -647.622389  Gnorm:      0.010852  CPU:    9.848
  Cycle:    174 Energy:      -647.622535  Gnorm:      0.012724  CPU:    9.900
  Cycle:    175 Energy:      -647.622839  Gnorm:      0.008102  CPU:    9.952
  ** Hessian has required structure
  Cycle:    176 Energy:      -647.626132  Gnorm:      0.002378  CPU:   10.156
  ** Hessian has required structure
  Cycle:    177 Energy:      -647.626440  Gnorm:      0.000136  CPU:   10.226
  ** Hessian has required structure


  **** Optimisation achieved ****


  Final enthalpy =    -647.62644001 eV      
  Final Gnorm    =       0.00003166

  Components of enthalpy : 

--------------------------------------------------------------------------------
  Interatomic potentials     =         227.30480067 eV    
  Monopole - monopole (real) =        -518.28156148 eV    
  Monopole - monopole (recip)=        -486.95803713 eV    
  Monopole - monopole (total)=       -1005.23959861 eV    
  Pressure*volume            =         130.30835793 eV    
--------------------------------------------------------------------------------
  Total lattice enthalpy     =        -647.62644001 eV    
--------------------------------------------------------------------------------
  Total lattice enthalpy     =          -62486.0516 kJ/(mole unit cells)
--------------------------------------------------------------------------------

  Final fractional coordinates of atoms :

--------------------------------------------------------------------------------
   No.  Atomic        x           y          z          Radius
        Label       (Frac)      (Frac)     (Frac)       (Angs) 
--------------------------------------------------------------------------------
     1  Al    c     0.001034    0.790381    0.466967    0.000000
     2  Al    c     0.693963    0.486332    0.460305    0.000000
     3  Al    c     0.501034    0.290382    0.966967    0.000000
     4  Al    c     0.193963    0.986331    0.960305    0.000000
     5  Al    c     0.044176    0.342788    0.735371    0.000000
     6  Al    c     0.439121    0.731412    0.715202    0.000000
     7  Al    c     0.544176    0.842788    0.235371    0.000000
     8  Al    c     0.939121    0.231411    0.215202    0.000000
     9  Mg    c     0.309669    0.101206    0.472380    0.000000
    10  Mg    c     0.243118    0.533311    0.221453    0.000000
    11  Mg    c     0.743117    0.033309    0.721454    0.000000
    12  Mg    c     0.809668    0.601205    0.972380    0.000000
    13  O     c     0.892322    0.048809    0.944926    0.000000
    14  O     c     0.603770    0.062302    0.965058    0.000000
    15  O     c     0.392322    0.548811    0.444926    0.000000
    16  O     c     0.103770    0.562302    0.465058    0.000000
    17  O     c     0.596187    0.067140    0.494384    0.000000
    18  O     c     0.863551    0.949759    0.459154    0.000000
    19  O     c     0.848722    0.461262    0.267354    0.000000
    20  O     c     0.622582    0.578995    0.193679    0.000000
    21  O     c     0.348722    0.961265    0.767355    0.000000
    22  O     c     0.122583    0.078995    0.693679    0.000000
    23  O     c     0.096187    0.567140    0.994384    0.000000
    24  O     c     0.363550    0.449760    0.959154    0.000000
    25  O     c     0.106037    0.063681    0.219334    0.000000
    26  O     c     0.377919    0.993406    0.189584    0.000000
    27  O     c     0.877919    0.493404    0.689584    0.000000
    28  O     c     0.606037    0.563681    0.719335    0.000000
--------------------------------------------------------------------------------

  Final Cartesian lattice vectors (Angstroms) :

        9.131331   -2.689115    0.199841
       -0.947217    4.507178    0.024894
        0.127722    0.045346    5.411152


  Final cell parameters and derivatives :

--------------------------------------------------------------------------------
       a            9.521159 Angstrom     dE/de1(xx)     0.000429 eV/strain
       b            4.605702 Angstrom     dE/de2(yy)     0.000283 eV/strain
       c            5.412849 Angstrom     dE/de3(zz)     0.000708 eV/strain
       alpha       89.498726 Degrees      dE/de4(yz)     0.000152 eV/strain
       beta        87.636080 Degrees      dE/de5(xz)    -0.000177 eV/strain
       gamma      118.263145 Degrees      dE/de6(xy)    -0.000765 eV/strain
--------------------------------------------------------------------------------

  Primitive cell volume =           208.778618 Angs**3

  Density of cell =      4.526300 g/cm**3

  Non-primitive cell volume =           208.778618 Angs**3


  Final internal derivatives :

--------------------------------------------------------------------------------
   No.  Atomic          a             b             c           Radius
        Label          (eV)          (eV)          (eV)        (eV/Angs)
--------------------------------------------------------------------------------
      1 Al    c       0.000000      0.000000      0.000000      0.000000
      2 Al    c      -0.000690      0.000458      0.000187      0.000000
      3 Al    c       0.000016      0.000019      0.000001      0.000000
      4 Al    c      -0.000008     -0.000284      0.000120      0.000000
      5 Al    c      -0.000279      0.000322      0.000100      0.000000
      6 Al    c      -0.000178      0.000092     -0.000025      0.000000
      7 Al    c       0.000139     -0.000103     -0.000002      0.000000
      8 Al    c       0.000699     -0.000539     -0.000274      0.000000
      9 Mg    c       0.000614     -0.000259     -0.000067      0.000000
     10 Mg    c      -0.000211      0.000487      0.000012      0.000000
     11 Mg    c       0.000128     -0.000367      0.000126      0.000000
     12 Mg    c      -0.000101      0.000262     -0.000060      0.000000
     13 O     c       0.000032      0.000090     -0.000014      0.000000
     14 O     c      -0.000089     -0.000015     -0.000039      0.000000
     15 O     c      -0.000229      0.000004     -0.000058      0.000000
     16 O     c       0.000293     -0.000318     -0.000040      0.000000
     17 O     c       0.000144     -0.000002     -0.000015      0.000000
     18 O     c      -0.000243      0.000497      0.000071      0.000000
     19 O     c      -0.000061     -0.000539     -0.000620      0.000000
     20 O     c      -0.000336      0.000075     -0.000069      0.000000
     21 O     c       0.000124      0.000146      0.000110      0.000000
     22 O     c      -0.000080      0.000275      0.000624      0.000000
     23 O     c      -0.000200     -0.000004      0.000036      0.000000
     24 O     c       0.000155     -0.000005     -0.000122      0.000000
     25 O     c      -0.000115      0.000148     -0.000672      0.000000
     26 O     c       0.000332     -0.000102     -0.000100      0.000000
     27 O     c      -0.000013     -0.000284      0.000637      0.000000
     28 O     c      -0.000398      0.000064      0.000073      0.000000
--------------------------------------------------------------------------------
  Maximum abs         0.000699      0.000539      0.000672      0.000000
--------------------------------------------------------------------------------


  Time to end of optimisation =      10.2974 seconds


  Peak dynamic memory used =       2.03 MB 


  Timing analysis for GULP :

--------------------------------------------------------------------------------
  Task / Subroutine                                          Time (Seconds)
--------------------------------------------------------------------------------
  Calculation of reciprocal space energy and derivatives          0.4821
  Calculation of real space energy and derivatives                9.7071
  Calculation and manipulation of Hessian matrix                  0.0594
  Global summation overhead                                       0.0011
--------------------------------------------------------------------------------
  Total CPU time                                                 10.2975
--------------------------------------------------------------------------------


  Job Finished at 15:46.27 11th June       2024                               

