********************************************************************************
*                       GENERAL UTILITY LATTICE PROGRAM                        *
*                                 Julian Gale                                  *
*                       Curtin Institute for Computation                       *
*                    School of Molecular and Life Sciences                     *
*                    Curtin University, Western Australia                      *
********************************************************************************
* Version = 6.0.0 * Last modified =  12th July 2021                            *
********************************************************************************
*  optimise     - perform optimisation run                                     *
*  conp         - constant pressure calculation                                *
*  nosymmetry   - turn off symmetry after initial structure generation         *
*  conjugate    - use conjugate gradients minimiser                            *
********************************************************************************

  Job Started  at 15:44.07 11th June       2024                               

  Number of CPUs =     1


  Total number of configurations input =      1

********************************************************************************
*  Input for Configuration =   1                                               *
********************************************************************************

  Formula = Al8Mg4O16                                                   

  Number of irreducible atoms/shells =      28


  Total number atoms/shells =      28

  Dimensionality = 3               :  Bulk   



  Cartesian lattice vectors (Angstroms) :

        7.374961    0.000000    0.000000
        0.000000    7.374961    0.000000
        0.000000    0.000000    5.310901

  Cell parameters (Angstroms/Degrees):

  a =       7.3750    alpha =  90.0000
  b =       7.3750    beta  =  90.0000
  c =       5.3109    gamma =  90.0000

  Initial cell volume =         288.860186 Angs**3

  Temperature of configuration =   0.00     K 

  Pressure of configuration =       100.000 GPa 

  Fractional coordinates of asymmetric unit :

--------------------------------------------------------------------------------
   No.  Atomic       x           y          z         Charge      Occupancy
        Label      (Frac)      (Frac)     (Frac)        (e)         (Frac)  
--------------------------------------------------------------------------------
      1 Al    c    0.000000    0.000000    0.000000     3.00000    1.000000    
      2 Al    c    0.000000 *  0.000000 *  0.500000 *   3.00000    1.000000    
      3 Al    c    0.500000 *  0.500000 *  0.500000 *   3.00000    1.000000    
      4 Al    c    0.500000 *  0.500000 *  0.000000 *   3.00000    1.000000    
      5 Al    c    0.000000 *  0.500000 *  0.250000 *   3.00000    1.000000    
      6 Al    c    0.500000 *  0.000000 *  0.250000 *   3.00000    1.000000    
      7 Al    c    0.500000 *  0.000000 *  0.750000 *   3.00000    1.000000    
      8 Al    c    0.000000 *  0.500000 *  0.750000 *   3.00000    1.000000    
      9 Mg    c    0.000000 *  0.500000 *  0.000000 *   2.00000    1.000000    
     10 Mg    c    0.500000 *  0.000000 *  0.000000 *   2.00000    1.000000    
     11 Mg    c    0.500000 *  0.000000 *  0.500000 *   2.00000    1.000000    
     12 Mg    c    0.000000 *  0.500000 *  0.500000 *   2.00000    1.000000    
     13 O     c    0.250000 *  0.250000 *  0.250000 *  -2.00000    1.000000    
     14 O     c    0.750000 *  0.750000 *  0.250000 *  -2.00000    1.000000    
     15 O     c    0.750000 *  0.250000 *  0.250000 *  -2.00000    1.000000    
     16 O     c    0.250000 *  0.750000 *  0.250000 *  -2.00000    1.000000    
     17 O     c    0.750000 *  0.750000 *  0.750000 *  -2.00000    1.000000    
     18 O     c    0.250000 *  0.250000 *  0.750000 *  -2.00000    1.000000    
     19 O     c    0.250000 *  0.750000 *  0.750000 *  -2.00000    1.000000    
     20 O     c    0.750000 *  0.250000 *  0.750000 *  -2.00000    1.000000    
     21 O     c    0.802235 *  0.302235 *  0.000000 *  -2.00000    1.000000    
     22 O     c    0.197765 *  0.697765 *  0.000000 *  -2.00000    1.000000    
     23 O     c    0.697765 *  0.802235 *  0.000000 *  -2.00000    1.000000    
     24 O     c    0.302235 *  0.197765 *  0.000000 *  -2.00000    1.000000    
     25 O     c    0.302235 *  0.802235 *  0.500000 *  -2.00000    1.000000    
     26 O     c    0.697765 *  0.197765 *  0.500000 *  -2.00000    1.000000    
     27 O     c    0.197765 *  0.302235 *  0.500000 *  -2.00000    1.000000    
     28 O     c    0.802235 *  0.697765 *  0.500000 *  -2.00000    1.000000    
--------------------------------------------------------------------------------



********************************************************************************
*  General input information                                                   *
********************************************************************************

  Species output for all configurations : 

--------------------------------------------------------------------------------
  Species    Type    Atomic    Atomic    Charge       Radii (Angs)     Library
                     Number     Mass       (e)     Cova   Ionic  VDW   Symbol
--------------------------------------------------------------------------------
    Mg       Core       12      24.31   2.000000   1.100  0.000  1.640          
    Al       Core       13      26.98   3.000000   1.350  0.000  2.050          
    O        Core        8      16.00  -2.000000   0.730  0.000  1.360          
--------------------------------------------------------------------------------


  Lattice summation method               =    Ewald          (3-D)
                                         =    Parry          (2-D)
                                         =    Saunders et al (1-D)
  Accuracy factor for lattice sums       =   12.000


  Analytic derivatives to be used

  Time limit = Infinity

  Maximum range for interatomic potentials =    100000.000000 Angstroms

  General interatomic potentials :

--------------------------------------------------------------------------------
Atom  Types   Potential      Parameter       Value         Units   Cutoffs(Ang)
  1     2                                                            Min /  Max 
--------------------------------------------------------------------------------
O    c Mg   c Lennard       Lennard-Jones A  1.5000000    eV*Ang^m  0.000  6.000
                            Lennard-Jones B  0.0000000    eV*Ang^n  
                            Exponent m        12          None
                            Exponent n         6          None
--------------------------------------------------------------------------------
O    c Al   c Lennard       Lennard-Jones A  1.5000000    eV*Ang^m  0.000  6.000
                            Lennard-Jones B  0.0000000    eV*Ang^n  
                            Exponent m        12          None
                            Exponent n         6          None
--------------------------------------------------------------------------------
O    c O    c Lennard       Lennard-Jones A  1.5000000    eV*Ang^m  0.000  6.000
                            Lennard-Jones B  0.0000000    eV*Ang^n  
                            Exponent m        12          None
                            Exponent n         6          None
--------------------------------------------------------------------------------
Mg   c Mg   c Lennard       Lennard-Jones A  1.5000000    eV*Ang^m  0.000  6.000
                            Lennard-Jones B  0.0000000    eV*Ang^n  
                            Exponent m        12          None
                            Exponent n         6          None
--------------------------------------------------------------------------------
Mg   c Al   c Lennard       Lennard-Jones A  1.5000000    eV*Ang^m  0.000  6.000
                            Lennard-Jones B  0.0000000    eV*Ang^n  
                            Exponent m        12          None
                            Exponent n         6          None
--------------------------------------------------------------------------------
Al   c Al   c Lennard       Lennard-Jones A  1.5000000    eV*Ang^m  0.000  6.000
                            Lennard-Jones B  0.0000000    eV*Ang^n  
                            Exponent m        12          None
                            Exponent n         6          None
--------------------------------------------------------------------------------
O    c Mg   c Buckingham    Buckingham A     1428.5000    eV        0.000  7.000
                            Buckingham rho  0.29450000    Ang       
                            Buckingham C     0.0000000    eV*Ang^6  
--------------------------------------------------------------------------------
O    c Al   c Buckingham    Buckingham A     1114.9000    eV        0.000  7.000
                            Buckingham rho  0.31180000    Ang       
                            Buckingham C     0.0000000    eV*Ang^6  
--------------------------------------------------------------------------------
O    c O    c Buckingham    Buckingham A     2023.8000    eV        0.000  7.000
                            Buckingham rho  0.26740000    Ang       
                            Buckingham C     0.0000000    eV*Ang^6  
--------------------------------------------------------------------------------

********************************************************************************
*  Output for configuration   1                                                *
********************************************************************************


  Components of enthalpy : 

--------------------------------------------------------------------------------
  Interatomic potentials     =         184.56553379 eV    
  Monopole - monopole (real) =         126.59776748 eV    
  Monopole - monopole (recip)=        -430.32767177 eV    
  Monopole - monopole (total)=        -303.72990429 eV    
  Pressure*volume            =         180.29095551 eV    
--------------------------------------------------------------------------------
  Total lattice enthalpy     =          61.12658501 eV    
--------------------------------------------------------------------------------
  Total lattice enthalpy     =            5897.7810 kJ/(mole unit cells)
--------------------------------------------------------------------------------


  Number of variables =       87

  Maximum number of calculations  =           850
  Maximum Hessian update interval =            10
  Maximum step size               =   1.000000000
  Maximum parameter tolerance     =   0.000010000
  Maximum function  tolerance     =   0.000010000
  Maximum gradient  tolerance     =   0.001000000
  Maximum gradient  component     =   0.010000000

  Cell parameters to be optimised using strains

  Conjugate gradient optimiser to be used

  Lower half triangular hessian to be used

  Minimiser to switch to RFO
  When gradient norm is less than     0.010000

  Start of bulk optimisation :

  Cycle:      0 Energy:        61.126585  Gnorm:     25.100862  CPU:    0.044
  Cycle:      1 Energy:      -384.908439  Gnorm:      6.403219  CPU:    0.096
  Cycle:      2 Energy:      -582.498015  Gnorm:      2.076971  CPU:    0.167
  Cycle:      3 Energy:      -591.063633  Gnorm:      0.896276  CPU:    0.211
  Cycle:      4 Energy:      -592.155803  Gnorm:      0.300446  CPU:    0.261
  Cycle:      5 Energy:      -592.410678  Gnorm:      0.096998  CPU:    0.308
  Cycle:      6 Energy:      -592.422873  Gnorm:      0.034099  CPU:    0.354
  Cycle:      7 Energy:      -592.426241  Gnorm:      0.011201  CPU:    0.400
  Cycle:      8 Energy:      -592.426405  Gnorm:      0.003104  CPU:    0.438
  ** Hessian has wrong structure
  ** Imaginary eigenvectors =  19
  ** Hessian has wrong structure
  ** Imaginary eigenvectors =  19
  Cycle:      9 Energy:      -592.433791  Gnorm:      0.017535  CPU:    0.756
  ** Hessian has wrong structure
  ** Imaginary eigenvectors =  19
  Cycle:     10 Energy:      -592.481164  Gnorm:      0.046983  CPU:    1.007
  ** Hessian has wrong structure
  ** Imaginary eigenvectors =  19
  Cycle:     11 Energy:      -592.596069  Gnorm:      0.082631  CPU:    1.397
  ** Hessian has wrong structure
  ** Imaginary eigenvectors =  19
  Cycle:     12 Energy:      -592.991291  Gnorm:      0.150815  CPU:    1.663
  ** Hessian has wrong structure
  ** Imaginary eigenvectors =  19
  Cycle:     13 Energy:      -593.851059  Gnorm:      0.238856  CPU:    1.902
  ** Hessian has wrong structure
  ** Imaginary eigenvectors =  20
  Cycle:     14 Energy:      -595.799465  Gnorm:      0.367681  CPU:    2.138
  ** Hessian has wrong structure
  ** Imaginary eigenvectors =  20
  ** Hessian has wrong structure
  ** Imaginary eigenvectors =  20
  Cycle:     15 Energy:      -602.502474  Gnorm:      1.326768  CPU:    2.502
  ** Hessian has wrong structure
  ** Imaginary eigenvectors =  20
  Cycle:     16 Energy:      -607.494143  Gnorm:      2.113184  CPU:    2.632
  ** Hessian has wrong structure
  ** Imaginary eigenvectors =  14
  ** Hessian has wrong structure
  ** Imaginary eigenvectors =  14
  Cycle:     17 Energy:      -610.914983  Gnorm:      2.132530  CPU:    3.043
  ** Hessian has wrong structure
  ** Imaginary eigenvectors =  13
  Cycle:     18 Energy:      -613.388599  Gnorm:      2.351170  CPU:    3.175
  ** Hessian has wrong structure
  ** Imaginary eigenvectors =  12
  ** Hessian has wrong structure
  ** Imaginary eigenvectors =  11
  Cycle:     19 Energy:      -616.876738  Gnorm:      2.288311  CPU:    3.591
  ** Hessian has wrong structure
  ** Imaginary eigenvectors =   9
  ** Hessian has wrong structure
  ** Imaginary eigenvectors =   9
  Cycle:     20 Energy:      -622.203004  Gnorm:      1.924353  CPU:    4.029
  ** Hessian has wrong structure
  ** Imaginary eigenvectors =   8
  Cycle:     21 Energy:      -623.284973  Gnorm:      2.052422  CPU:    4.188
  ** Hessian has wrong structure
  ** Imaginary eigenvectors =   9
  ** Hessian has wrong structure
  ** Imaginary eigenvectors =   8
  Cycle:     22 Energy:      -626.637676  Gnorm:      1.763558  CPU:    4.574
  ** Hessian has wrong structure
  ** Imaginary eigenvectors =   7
  ** Hessian has wrong structure
  ** Imaginary eigenvectors =   6
  Cycle:     23 Energy:      -630.575518  Gnorm:      2.010252  CPU:    4.811
  ** Hessian has wrong structure
  ** Imaginary eigenvectors =   5
  ** Hessian has wrong structure
  ** Imaginary eigenvectors =   4
  Cycle:     24 Energy:      -635.639607  Gnorm:      1.775229  CPU:    5.041
  ** Hessian has wrong structure
  ** Imaginary eigenvectors =   3
  ** Hessian has wrong structure
  ** Imaginary eigenvectors =   3
  Cycle:     25 Energy:      -636.565735  Gnorm:      1.722072  CPU:    5.317
  ** Hessian has wrong structure
  ** Imaginary eigenvectors =   2
  ** Hessian has wrong structure
  ** Imaginary eigenvectors =   2
  Cycle:     26 Energy:      -637.359448  Gnorm:      1.601571  CPU:    5.630
  ** Hessian has wrong structure
  ** Imaginary eigenvectors =   2
  Cycle:     27 Energy:      -637.623172  Gnorm:      1.571240  CPU:    5.770
  ** Hessian has wrong structure
  ** Imaginary eigenvectors =   2
  ** Hessian has wrong structure
  ** Imaginary eigenvectors =   2
  Cycle:     28 Energy:      -638.403012  Gnorm:      1.437152  CPU:    6.178
  ** Hessian has wrong structure
  ** Imaginary eigenvectors =   1
  Cycle:     29 Energy:      -641.329993  Gnorm:      1.187644  CPU:    6.347
  ** Hessian has wrong structure
  ** Imaginary eigenvectors =   1
  ** Hessian has wrong structure
  ** Imaginary eigenvectors =   1
  Cycle:     30 Energy:      -643.533760  Gnorm:      1.092773  CPU:    6.712
  ** Hessian has required structure
  Cycle:     31 Energy:      -644.817118  Gnorm:      0.849263  CPU:    6.787
  ** Hessian has required structure
  Cycle:     32 Energy:      -646.249621  Gnorm:      0.416752  CPU:    6.880
  ** Hessian has required structure
  Cycle:     33 Energy:      -646.603755  Gnorm:      0.333001  CPU:    6.957
  ** Hessian has required structure
  Cycle:     34 Energy:      -646.859014  Gnorm:      0.214874  CPU:    7.049
  ** Hessian has required structure
  Cycle:     35 Energy:      -646.986746  Gnorm:      0.174987  CPU:    7.125
  ** Hessian has required structure
  Cycle:     36 Energy:      -647.131575  Gnorm:      0.182444  CPU:    7.217
  ** Hessian has required structure
  Cycle:     37 Energy:      -647.220351  Gnorm:      0.127471  CPU:    7.293
  ** Hessian has required structure
  Cycle:     38 Energy:      -647.261339  Gnorm:      0.089766  CPU:    7.370
  ** Hessian has required structure
  Cycle:     39 Energy:      -647.283824  Gnorm:      0.073127  CPU:    7.448
  ** Hessian has required structure
  Cycle:     40 Energy:      -647.308111  Gnorm:      0.009101  CPU:    7.636
  ** Hessian has required structure
  Cycle:     41 Energy:      -647.308374  Gnorm:      0.001530  CPU:    7.712
  ** Hessian has required structure
  Cycle:     42 Energy:      -647.308393  Gnorm:      0.000267  CPU:    7.789
  ** Hessian has required structure
  Cycle:     43 Energy:      -647.308395  Gnorm:      0.000227  CPU:    7.866
  ** Hessian has required structure


  **** Optimisation achieved ****


  Final enthalpy =    -647.30839533 eV      
  Final Gnorm    =       0.00003918

  Components of enthalpy : 

--------------------------------------------------------------------------------
  Interatomic potentials     =         226.49180415 eV    
  Monopole - monopole (real) =        -516.30605563 eV    
  Monopole - monopole (recip)=        -487.42661561 eV    
  Monopole - monopole (total)=       -1003.73267124 eV    
  Pressure*volume            =         129.93247176 eV    
--------------------------------------------------------------------------------
  Total lattice enthalpy     =        -647.30839533 eV    
--------------------------------------------------------------------------------
  Total lattice enthalpy     =          -62455.3651 kJ/(mole unit cells)
--------------------------------------------------------------------------------

  Final fractional coordinates of atoms :

--------------------------------------------------------------------------------
   No.  Atomic        x           y          z          Radius
        Label       (Frac)      (Frac)     (Frac)       (Angs) 
--------------------------------------------------------------------------------
     1  Al    c     0.000000    0.000000    0.000000    0.000000
     2  Al    c     0.998301    0.012294    0.503462    0.000000
     3  Al    c     0.495896    0.688197    0.407417    0.000000
     4  Al    c     0.488676    0.672259    0.901824    0.000000
     5  Al    c     0.985303    0.373317    0.296450    0.000000
     6  Al    c     0.493185    0.997255    0.255173    0.000000
     7  Al    c     0.495411    0.995423    0.749030    0.000000
     8  Al    c     0.980282    0.331861    0.811427    0.000000
     9  Mg    c     0.992788    0.698339    0.150260    0.000000
    10  Mg    c     0.495984    0.335467    0.063358    0.000000
    11  Mg    c     0.498232    0.360673    0.561818    0.000000
    12  Mg    c     0.995231    0.687498    0.656661    0.000000
    13  O     c     0.126553    0.333720    0.119514    0.000000
    14  O     c     0.657666    0.603018    0.229344    0.000000
    15  O     c     0.797622    0.077462    0.180525    0.000000
    16  O     c     0.201792    0.851148    0.340478    0.000000
    17  O     c     0.643131    0.631497    0.733990    0.000000
    18  O     c     0.133963    0.329597    0.629193    0.000000
    19  O     c     0.228550    0.880990    0.846540    0.000000
    20  O     c     0.790168    0.071992    0.670880    0.000000
    21  O     c     0.749065    0.119279    0.913268    0.000000
    22  O     c     0.327904    0.853715    0.079279    0.000000
    23  O     c     0.845449    0.635044    0.952118    0.000000
    24  O     c     0.333693    0.351096    0.862677    0.000000
    25  O     c     0.307601    0.841314    0.578263    0.000000
    26  O     c     0.686403    0.045424    0.422144    0.000000
    27  O     c     0.326679    0.344141    0.356762    0.000000
    28  O     c     0.822005    0.580406    0.457459    0.000000
--------------------------------------------------------------------------------

  Final Cartesian lattice vectors (Angstroms) :

        4.639472    0.022395   -0.005160
        0.065438    4.986575   -1.043223
       -0.053862   -1.998030    9.416876


  Final cell parameters and derivatives :

--------------------------------------------------------------------------------
       a            4.639529 Angstrom     dE/de1(xx)     0.000207 eV/strain
       b            5.094951 Angstrom     dE/de2(yy)    -0.000047 eV/strain
       c            9.626659 Angstrom     dE/de3(zz)    -0.000319 eV/strain
       alpha      113.797353 Degrees      dE/de4(yz)    -0.000339 eV/strain
       beta        90.440308 Degrees      dE/de5(xz)     0.000390 eV/strain
       gamma       88.980338 Degrees      dE/de6(xy)    -0.000272 eV/strain
--------------------------------------------------------------------------------

  Primitive cell volume =           208.176377 Angs**3

  Density of cell =      4.539394 g/cm**3

  Non-primitive cell volume =           208.176377 Angs**3


  Final internal derivatives :

--------------------------------------------------------------------------------
   No.  Atomic          a             b             c           Radius
        Label          (eV)          (eV)          (eV)        (eV/Angs)
--------------------------------------------------------------------------------
      1 Al    c       0.000000      0.000000      0.000000      0.000000
      2 Al    c      -0.000450      0.001066     -0.001305      0.000000
      3 Al    c      -0.000131      0.000172     -0.000061      0.000000
      4 Al    c       0.000134     -0.000077      0.000478      0.000000
      5 Al    c      -0.000058      0.000286      0.000757      0.000000
      6 Al    c       0.000447     -0.000113      0.000002      0.000000
      7 Al    c      -0.000082      0.000084     -0.000108      0.000000
      8 Al    c      -0.000128      0.000113     -0.000256      0.000000
      9 Mg    c       0.000213      0.000067      0.000418      0.000000
     10 Mg    c       0.000214     -0.000217     -0.000468      0.000000
     11 Mg    c      -0.000282     -0.000900      0.000520      0.000000
     12 Mg    c       0.000081     -0.000126     -0.000332      0.000000
     13 O     c      -0.000034      0.000380      0.000132      0.000000
     14 O     c       0.000005      0.000061     -0.000345      0.000000
     15 O     c      -0.000142     -0.000055     -0.000147      0.000000
     16 O     c      -0.000503     -0.000450     -0.000049      0.000000
     17 O     c      -0.000045      0.000182     -0.000464      0.000000
     18 O     c       0.000339      0.000170     -0.000136      0.000000
     19 O     c       0.000102      0.000048      0.000179      0.000000
     20 O     c      -0.000131     -0.000261      0.000978      0.000000
     21 O     c      -0.000251      0.000234     -0.000183      0.000000
     22 O     c      -0.000077      0.000063     -0.000343      0.000000
     23 O     c      -0.000169     -0.000006      0.000031      0.000000
     24 O     c      -0.000054     -0.000062     -0.000084      0.000000
     25 O     c       0.000763     -0.000141     -0.000065      0.000000
     26 O     c       0.000403      0.000603      0.000386      0.000000
     27 O     c      -0.000387     -0.000287      0.000547      0.000000
     28 O     c       0.000138     -0.000712     -0.000127      0.000000
--------------------------------------------------------------------------------
  Maximum abs         0.000763      0.001066      0.001305      0.000000
--------------------------------------------------------------------------------


  Time to end of optimisation =       7.9460 seconds


  Peak dynamic memory used =       2.03 MB 


  Timing analysis for GULP :

--------------------------------------------------------------------------------
  Task / Subroutine                                          Time (Seconds)
--------------------------------------------------------------------------------
  Calculation of reciprocal space energy and derivatives          0.5318
  Calculation of real space energy and derivatives                6.4432
  Calculation and manipulation of Hessian matrix                  2.3633
  Global summation overhead                                       0.0005
--------------------------------------------------------------------------------
  Total CPU time                                                  7.9461
--------------------------------------------------------------------------------


  Job Finished at 15:44.15 11th June       2024                               

