********************************************************************************
*                       GENERAL UTILITY LATTICE PROGRAM                        *
*                                 Julian Gale                                  *
*                       Curtin Institute for Computation                       *
*                    School of Molecular and Life Sciences                     *
*                    Curtin University, Western Australia                      *
********************************************************************************
* Version = 6.0.0 * Last modified =  12th July 2021                            *
********************************************************************************
*  optimise     - perform optimisation run                                     *
*  conp         - constant pressure calculation                                *
*  nosymmetry   - turn off symmetry after initial structure generation         *
*  conjugate    - use conjugate gradients minimiser                            *
********************************************************************************

  Job Started  at 15:48.13 11th June       2024                               

  Number of CPUs =     1


  Total number of configurations input =      1

********************************************************************************
*  Input for Configuration =   1                                               *
********************************************************************************

  Formula = Al8Mg4O16                                                   

  Number of irreducible atoms/shells =      28


  Total number atoms/shells =      28

  Dimensionality = 3               :  Bulk   



  Cartesian lattice vectors (Angstroms) :

        6.458752    0.000000    0.000000
        0.000000    6.458752    0.000000
        0.000000    0.000000    5.161623

  Cell parameters (Angstroms/Degrees):

  a =       6.4588    alpha =  90.0000
  b =       6.4588    beta  =  90.0000
  c =       5.1616    gamma =  90.0000

  Initial cell volume =         215.319594 Angs**3

  Temperature of configuration =   0.00     K 

  Pressure of configuration =       100.000 GPa 

  Fractional coordinates of asymmetric unit :

--------------------------------------------------------------------------------
   No.  Atomic       x           y          z         Charge      Occupancy
        Label      (Frac)      (Frac)     (Frac)        (e)         (Frac)  
--------------------------------------------------------------------------------
      1 Al    c    0.500000    0.500000    0.250000     3.00000    1.000000    
      2 Al    c    0.500000 *  0.500000 *  0.750000 *   3.00000    1.000000    
      3 Al    c    0.000000 *  0.000000 *  0.250000 *   3.00000    1.000000    
      4 Al    c    0.000000 *  0.000000 *  0.750000 *   3.00000    1.000000    
      5 Al    c    0.000000 *  0.500000 *  0.500000 *   3.00000    1.000000    
      6 Al    c    0.500000 *  0.000000 *  0.000000 *   3.00000    1.000000    
      7 Al    c    0.000000 *  0.000000 *  0.000000 *   3.00000    1.000000    
      8 Al    c    0.000000 *  0.000000 *  0.500000 *   3.00000    1.000000    
      9 Mg    c    0.222365 *  0.500000 *  0.000000 *   2.00000    1.000000    
     10 Mg    c    0.777635 *  0.500000 *  0.000000 *   2.00000    1.000000    
     11 Mg    c    0.500000 *  0.222365 *  0.500000 *   2.00000    1.000000    
     12 Mg    c    0.500000 *  0.777635 *  0.500000 *   2.00000    1.000000    
     13 O     c    0.214981 *  0.359657 *  0.765115 *  -2.00000    1.000000    
     14 O     c    0.785019 *  0.640343 *  0.765115 *  -2.00000    1.000000    
     15 O     c    0.640343 *  0.214981 *  0.265115 *  -2.00000    1.000000    
     16 O     c    0.359657 *  0.785019 *  0.265115 *  -2.00000    1.000000    
     17 O     c    0.785019 *  0.359657 *  0.234885 *  -2.00000    1.000000    
     18 O     c    0.214981 *  0.640343 *  0.234885 *  -2.00000    1.000000    
     19 O     c    0.359657 *  0.214981 *  0.734885 *  -2.00000    1.000000    
     20 O     c    0.640343 *  0.785019 *  0.734885 *  -2.00000    1.000000    
     21 O     c    0.785019 *  0.640343 *  0.234885 *  -2.00000    1.000000    
     22 O     c    0.214981 *  0.359657 *  0.234885 *  -2.00000    1.000000    
     23 O     c    0.359657 *  0.785019 *  0.734885 *  -2.00000    1.000000    
     24 O     c    0.640343 *  0.214981 *  0.734885 *  -2.00000    1.000000    
     25 O     c    0.214981 *  0.640343 *  0.765115 *  -2.00000    1.000000    
     26 O     c    0.785019 *  0.359657 *  0.765115 *  -2.00000    1.000000    
     27 O     c    0.640343 *  0.785019 *  0.265115 *  -2.00000    1.000000    
     28 O     c    0.359657 *  0.214981 *  0.265115 *  -2.00000    1.000000    
--------------------------------------------------------------------------------



********************************************************************************
*  General input information                                                   *
********************************************************************************

  Species output for all configurations : 

--------------------------------------------------------------------------------
  Species    Type    Atomic    Atomic    Charge       Radii (Angs)     Library
                     Number     Mass       (e)     Cova   Ionic  VDW   Symbol
--------------------------------------------------------------------------------
    Mg       Core       12      24.31   2.000000   1.100  0.000  1.640          
    Al       Core       13      26.98   3.000000   1.350  0.000  2.050          
    O        Core        8      16.00  -2.000000   0.730  0.000  1.360          
--------------------------------------------------------------------------------


  Lattice summation method               =    Ewald          (3-D)
                                         =    Parry          (2-D)
                                         =    Saunders et al (1-D)
  Accuracy factor for lattice sums       =   12.000


  Analytic derivatives to be used

  Time limit = Infinity

  Maximum range for interatomic potentials =    100000.000000 Angstroms

  General interatomic potentials :

--------------------------------------------------------------------------------
Atom  Types   Potential      Parameter       Value         Units   Cutoffs(Ang)
  1     2                                                            Min /  Max 
--------------------------------------------------------------------------------
O    c Mg   c Lennard       Lennard-Jones A  1.5000000    eV*Ang^m  0.000  6.000
                            Lennard-Jones B  0.0000000    eV*Ang^n  
                            Exponent m        12          None
                            Exponent n         6          None
--------------------------------------------------------------------------------
O    c Al   c Lennard       Lennard-Jones A  1.5000000    eV*Ang^m  0.000  6.000
                            Lennard-Jones B  0.0000000    eV*Ang^n  
                            Exponent m        12          None
                            Exponent n         6          None
--------------------------------------------------------------------------------
O    c O    c Lennard       Lennard-Jones A  1.5000000    eV*Ang^m  0.000  6.000
                            Lennard-Jones B  0.0000000    eV*Ang^n  
                            Exponent m        12          None
                            Exponent n         6          None
--------------------------------------------------------------------------------
Mg   c Mg   c Lennard       Lennard-Jones A  1.5000000    eV*Ang^m  0.000  6.000
                            Lennard-Jones B  0.0000000    eV*Ang^n  
                            Exponent m        12          None
                            Exponent n         6          None
--------------------------------------------------------------------------------
Mg   c Al   c Lennard       Lennard-Jones A  1.5000000    eV*Ang^m  0.000  6.000
                            Lennard-Jones B  0.0000000    eV*Ang^n  
                            Exponent m        12          None
                            Exponent n         6          None
--------------------------------------------------------------------------------
Al   c Al   c Lennard       Lennard-Jones A  1.5000000    eV*Ang^m  0.000  6.000
                            Lennard-Jones B  0.0000000    eV*Ang^n  
                            Exponent m        12          None
                            Exponent n         6          None
--------------------------------------------------------------------------------
O    c Mg   c Buckingham    Buckingham A     1428.5000    eV        0.000  7.000
                            Buckingham rho  0.29450000    Ang       
                            Buckingham C     0.0000000    eV*Ang^6  
--------------------------------------------------------------------------------
O    c Al   c Buckingham    Buckingham A     1114.9000    eV        0.000  7.000
                            Buckingham rho  0.31180000    Ang       
                            Buckingham C     0.0000000    eV*Ang^6  
--------------------------------------------------------------------------------
O    c O    c Buckingham    Buckingham A     2023.8000    eV        0.000  7.000
                            Buckingham rho  0.26740000    Ang       
                            Buckingham C     0.0000000    eV*Ang^6  
--------------------------------------------------------------------------------

********************************************************************************
*  Output for configuration   1                                                *
********************************************************************************


  Components of enthalpy : 

--------------------------------------------------------------------------------
  Interatomic potentials     =         325.13788212 eV    
  Monopole - monopole (real) =         -75.31817174 eV    
  Monopole - monopole (recip)=        -438.26209681 eV    
  Monopole - monopole (total)=        -513.58026855 eV    
  Pressure*volume            =         134.39088250 eV    
--------------------------------------------------------------------------------
  Total lattice enthalpy     =         -54.05150393 eV    
--------------------------------------------------------------------------------
  Total lattice enthalpy     =           -5215.1439 kJ/(mole unit cells)
--------------------------------------------------------------------------------


  Number of variables =       87

  Maximum number of calculations  =           850
  Maximum Hessian update interval =            10
  Maximum step size               =   1.000000000
  Maximum parameter tolerance     =   0.000010000
  Maximum function  tolerance     =   0.000010000
  Maximum gradient  tolerance     =   0.001000000
  Maximum gradient  component     =   0.010000000

  Cell parameters to be optimised using strains

  Conjugate gradient optimiser to be used

  Lower half triangular hessian to be used

  Minimiser to switch to RFO
  When gradient norm is less than     0.010000

  Start of bulk optimisation :

  Cycle:      0 Energy:       -54.051504  Gnorm:     21.227814  CPU:    0.033
  Cycle:      1 Energy:      -217.002892  Gnorm:     11.789503  CPU:    0.096
  Cycle:      2 Energy:      -300.955042  Gnorm:      5.755984  CPU:    0.140
  Cycle:      3 Energy:      -322.477794  Gnorm:      3.106444  CPU:    0.185
  Cycle:      4 Energy:      -333.935551  Gnorm:      1.543779  CPU:    0.230
  Cycle:      5 Energy:      -337.770112  Gnorm:      2.052622  CPU:    0.275
  Cycle:      6 Energy:      -341.596407  Gnorm:      2.454578  CPU:    0.312
  Cycle:      7 Energy:      -356.871634  Gnorm:      4.892207  CPU:    0.382
  Cycle:      8 Energy:      -392.070581  Gnorm:      8.000274  CPU:    0.458
  Cycle:      9 Energy:      -582.317714  Gnorm:      3.759666  CPU:    0.530
  Cycle:     10 Energy:      -598.616636  Gnorm:      2.449693  CPU:    0.569
  Cycle:     11 Energy:      -602.132024  Gnorm:      1.214680  CPU:    0.607
  Cycle:     12 Energy:      -604.326375  Gnorm:      0.608342  CPU:    0.654
  Cycle:     13 Energy:      -604.716236  Gnorm:      0.467363  CPU:    0.692
  Cycle:     14 Energy:      -604.920220  Gnorm:      0.158839  CPU:    0.731
  Cycle:     15 Energy:      -604.954036  Gnorm:      0.113635  CPU:    0.778
  Cycle:     16 Energy:      -604.976524  Gnorm:      0.077112  CPU:    0.825
  Cycle:     17 Energy:      -604.981645  Gnorm:      0.059124  CPU:    0.863
  Cycle:     18 Energy:      -604.985717  Gnorm:      0.026014  CPU:    0.910
  Cycle:     19 Energy:      -604.986427  Gnorm:      0.018298  CPU:    0.948
  Cycle:     20 Energy:      -604.986599  Gnorm:      0.010419  CPU:    0.987
  Cycle:     21 Energy:      -604.986812  Gnorm:      0.009095  CPU:    1.025
  ** Hessian has wrong structure
  ** Imaginary eigenvectors =  20
  ** Hessian has wrong structure
  ** Imaginary eigenvectors =  20
  Cycle:     22 Energy:      -604.999431  Gnorm:      0.032334  CPU:    1.342
  ** Hessian has wrong structure
  ** Imaginary eigenvectors =  20
  Cycle:     23 Energy:      -605.081951  Gnorm:      0.085325  CPU:    1.544
  ** Hessian has wrong structure
  ** Imaginary eigenvectors =  20
  Cycle:     24 Energy:      -605.260144  Gnorm:      0.163978  CPU:    1.796
  ** Hessian has wrong structure
  ** Imaginary eigenvectors =  20
  Cycle:     25 Energy:      -605.945364  Gnorm:      0.304399  CPU:    2.045
  ** Hessian has wrong structure
  ** Imaginary eigenvectors =  19
  Cycle:     26 Energy:      -607.330710  Gnorm:      0.418149  CPU:    2.287
  ** Hessian has wrong structure
  ** Imaginary eigenvectors =  16
  ** Hessian has wrong structure
  ** Imaginary eigenvectors =  16
  Cycle:     27 Energy:      -608.137258  Gnorm:      0.528013  CPU:    2.659
  ** Hessian has wrong structure
  ** Imaginary eigenvectors =  15
  Cycle:     28 Energy:      -612.581567  Gnorm:      0.708460  CPU:    2.922
  ** Hessian has wrong structure
  ** Imaginary eigenvectors =  13
  ** Hessian has wrong structure
  ** Imaginary eigenvectors =  13
  Cycle:     29 Energy:      -615.060363  Gnorm:      0.780993  CPU:    3.289
  ** Hessian has wrong structure
  ** Imaginary eigenvectors =  12
  Cycle:     30 Energy:      -620.443970  Gnorm:      0.969320  CPU:    3.531
  ** Hessian has wrong structure
  ** Imaginary eigenvectors =   7
  Cycle:     31 Energy:      -626.674968  Gnorm:      1.442727  CPU:    3.772
  ** Hessian has wrong structure
  ** Imaginary eigenvectors =   5
  Cycle:     32 Energy:      -629.634134  Gnorm:      1.483740  CPU:    4.022
  ** Hessian has wrong structure
  ** Imaginary eigenvectors =   4
  ** Hessian has wrong structure
  ** Imaginary eigenvectors =   4
  Cycle:     33 Energy:      -630.814053  Gnorm:      1.490476  CPU:    4.425
  ** Hessian has wrong structure
  ** Imaginary eigenvectors =   3
  ** Hessian has wrong structure
  ** Imaginary eigenvectors =   2
  Cycle:     34 Energy:      -632.350385  Gnorm:      1.559275  CPU:    4.809
  ** Hessian has wrong structure
  ** Imaginary eigenvectors =   1
  ** Hessian has wrong structure
  ** Imaginary eigenvectors =   2
  Cycle:     35 Energy:      -632.923381  Gnorm:      1.503898  CPU:    5.262
  ** Hessian has wrong structure
  ** Imaginary eigenvectors =   1
  ** Hessian has wrong structure
  ** Imaginary eigenvectors =   1
  Cycle:     36 Energy:      -635.813634  Gnorm:      1.402025  CPU:    5.723
  ** Hessian has required structure
  Cycle:     37 Energy:      -636.999199  Gnorm:      1.550988  CPU:    5.865
  ** Hessian has required structure
  Cycle:     38 Energy:      -638.373754  Gnorm:      1.314284  CPU:    6.013
  ** Hessian has required structure
  Cycle:     39 Energy:      -639.190737  Gnorm:      0.957914  CPU:    6.162
  ** Hessian has required structure
  Cycle:     40 Energy:      -640.529599  Gnorm:      0.918055  CPU:    6.341
  ** Hessian has required structure
  Cycle:     41 Energy:      -641.164617  Gnorm:      0.798702  CPU:    6.490
  ** Hessian has required structure
  Cycle:     42 Energy:      -642.216800  Gnorm:      0.608929  CPU:    6.673
  ** Hessian has required structure
  Cycle:     43 Energy:      -643.031254  Gnorm:      0.459236  CPU:    6.826
  ** Hessian has required structure
  Cycle:     44 Energy:      -643.391893  Gnorm:      0.365094  CPU:    6.980
  ** Hessian has required structure
  Cycle:     45 Energy:      -643.596966  Gnorm:      0.348808  CPU:    7.134
  ** Hessian has wrong structure
  ** Imaginary eigenvectors =   1
  Cycle:     46 Energy:      -644.405430  Gnorm:      0.444315  CPU:    7.676
  ** Hessian has required structure
  Cycle:     47 Energy:      -645.034648  Gnorm:      0.298334  CPU:    7.960
  ** Hessian has required structure
  Cycle:     48 Energy:      -645.215177  Gnorm:      0.075344  CPU:    8.169
  ** Hessian has required structure
  Cycle:     49 Energy:      -645.234893  Gnorm:      0.044272  CPU:    8.335
  ** Hessian has required structure
  Cycle:     50 Energy:      -645.250064  Gnorm:      0.038880  CPU:    8.504
  ** Hessian has required structure
  Cycle:     51 Energy:      -645.254291  Gnorm:      0.013118  CPU:    8.675
  ** Hessian has required structure
  Cycle:     52 Energy:      -645.255002  Gnorm:      0.007095  CPU:    8.851
  ** Hessian has required structure
  Cycle:     53 Energy:      -645.255145  Gnorm:      0.002569  CPU:    9.020
  ** Hessian has required structure
  Cycle:     54 Energy:      -645.255170  Gnorm:      0.001043  CPU:    9.189
  ** Hessian has required structure
  Cycle:     55 Energy:      -645.255174  Gnorm:      0.000404  CPU:    9.358
  ** Hessian has required structure


  **** Optimisation achieved ****


  Final enthalpy =    -645.25517399 eV      
  Final Gnorm    =       0.00010162

  Components of enthalpy : 

--------------------------------------------------------------------------------
  Interatomic potentials     =         217.36101232 eV    
  Monopole - monopole (real) =        -499.65787309 eV    
  Monopole - monopole (recip)=        -490.47798554 eV    
  Monopole - monopole (total)=        -990.13585864 eV    
  Pressure*volume            =         127.51967232 eV    
--------------------------------------------------------------------------------
  Total lattice enthalpy     =        -645.25517399 eV    
--------------------------------------------------------------------------------
  Total lattice enthalpy     =          -62257.2607 kJ/(mole unit cells)
--------------------------------------------------------------------------------

  Final fractional coordinates of atoms :

--------------------------------------------------------------------------------
   No.  Atomic        x           y          z          Radius
        Label       (Frac)      (Frac)     (Frac)       (Angs) 
--------------------------------------------------------------------------------
     1  Al    c     0.500000    0.500000    0.250000    0.000000
     2  Al    c     0.495461    0.495460    0.749999    0.000000
     3  Al    c     0.975350    0.021022    0.261856    0.000000
     4  Al    c     0.974438    0.020110    0.761856    0.000000
     5  Al    c     0.063909    0.437407    0.595566    0.000000
     6  Al    c     0.558054    0.931553    0.095567    0.000000
     7  Al    c     0.153024    0.844867    0.923480    0.000000
     8  Al    c     0.150594    0.842438    0.423480    0.000000
     9  Mg    c     0.066654    0.428593    0.090249    0.000000
    10  Mg    c     0.636199    0.355370    0.929705    0.000000
    11  Mg    c     0.566868    0.928806    0.590250    0.000000
    12  Mg    c     0.640088    0.359261    0.429706    0.000000
    13  O     c     0.307491    0.156435    0.589291    0.000000
    14  O     c     0.831637    0.693906    0.596273    0.000000
    15  O     c     0.801071    0.153355    0.213636    0.000000
    16  O     c     0.345479    0.682479    0.216408    0.000000
    17  O     c     0.844830    0.199398    0.465323    0.000000
    18  O     c     0.309262    0.646699    0.454812    0.000000
    19  O     c     0.301928    0.163802    0.834890    0.000000
    20  O     c     0.841529    0.685046    0.827765    0.000000
    21  O     c     0.831653    0.693526    0.334887    0.000000
    22  O     c     0.310405    0.153927    0.327771    0.000000
    23  O     c     0.348759    0.686198    0.954813    0.000000
    24  O     c     0.796060    0.150629    0.965323    0.000000
    25  O     c     0.312982    0.649983    0.716408    0.000000
    26  O     c     0.842113    0.194390    0.713635    0.000000
    27  O     c     0.839027    0.687975    0.089288    0.000000
    28  O     c     0.301556    0.163823    0.096276    0.000000
--------------------------------------------------------------------------------

  Final Cartesian lattice vectors (Angstroms) :

        5.151538   -1.382131    0.909570
       -1.313701    5.173033   -0.888807
        2.121198   -2.195850    8.823448


  Final cell parameters and derivatives :

--------------------------------------------------------------------------------
       a            5.410725 Angstrom     dE/de1(xx)    -0.000847 eV/strain
       b            5.410735 Angstrom     dE/de2(yy)    -0.000820 eV/strain
       c            9.336727 Angstrom     dE/de3(zz)    -0.001468 eV/strain
       alpha      115.801159 Degrees      dE/de4(yz)    -0.000082 eV/strain
       beta        64.199089 Degrees      dE/de5(xz)     0.000405 eV/strain
       gamma      120.198656 Degrees      dE/de6(xy)    -0.000192 eV/strain
--------------------------------------------------------------------------------

  Primitive cell volume =           204.310617 Angs**3

  Density of cell =      4.625284 g/cm**3

  Non-primitive cell volume =           204.310617 Angs**3


  Final internal derivatives :

--------------------------------------------------------------------------------
   No.  Atomic          a             b             c           Radius
        Label          (eV)          (eV)          (eV)        (eV/Angs)
--------------------------------------------------------------------------------
      1 Al    c       0.000000      0.000000      0.000000      0.000000
      2 Al    c       0.000283      0.001068     -0.001174      0.000000
      3 Al    c       0.001110     -0.000939      0.000945      0.000000
      4 Al    c      -0.000088     -0.000224      0.000521      0.000000
      5 Al    c       0.000149      0.000527     -0.000515      0.000000
      6 Al    c       0.000389      0.001488     -0.000680      0.000000
      7 Al    c       0.000866      0.000352      0.000182      0.000000
      8 Al    c       0.000623      0.000132     -0.000582      0.000000
      9 Mg    c      -0.000040     -0.000101     -0.000532      0.000000
     10 Mg    c       0.000783     -0.001374      0.000567      0.000000
     11 Mg    c      -0.000307     -0.000263      0.000336      0.000000
     12 Mg    c       0.000591     -0.001065      0.000261      0.000000
     13 O     c      -0.000650      0.000689      0.000219      0.000000
     14 O     c      -0.000084     -0.000951      0.001017      0.000000
     15 O     c      -0.002114      0.002037     -0.003206      0.000000
     16 O     c       0.000066     -0.001087      0.000241      0.000000
     17 O     c       0.000588      0.000131      0.001620      0.000000
     18 O     c       0.000712     -0.001084      0.000203      0.000000
     19 O     c      -0.001976      0.000180     -0.000474      0.000000
     20 O     c       0.000195     -0.001511     -0.001272      0.000000
     21 O     c      -0.000686      0.000641     -0.000210      0.000000
     22 O     c       0.000089     -0.000317     -0.000009      0.000000
     23 O     c      -0.000108      0.000361      0.000705      0.000000
     24 O     c       0.000011      0.000015      0.003896      0.000000
     25 O     c      -0.000183      0.000056     -0.000652      0.000000
     26 O     c       0.000872      0.000882     -0.001651      0.000000
     27 O     c      -0.000209      0.000442      0.000173      0.000000
     28 O     c       0.000234     -0.000634      0.000579      0.000000
--------------------------------------------------------------------------------
  Maximum abs         0.002114      0.002037      0.003896      0.000000
--------------------------------------------------------------------------------


  Time to end of optimisation =       9.5349 seconds


  Peak dynamic memory used =       2.03 MB 


  Timing analysis for GULP :

--------------------------------------------------------------------------------
  Task / Subroutine                                          Time (Seconds)
--------------------------------------------------------------------------------
  Calculation of reciprocal space energy and derivatives          0.4904
  Calculation of real space energy and derivatives                8.2116
  Calculation and manipulation of Hessian matrix                  2.2598
  Global summation overhead                                       0.0006
--------------------------------------------------------------------------------
  Total CPU time                                                  9.5350
--------------------------------------------------------------------------------


  Job Finished at 15:48.23 11th June       2024                               

