********************************************************************************
*                       GENERAL UTILITY LATTICE PROGRAM                        *
*                                 Julian Gale                                  *
*                       Curtin Institute for Computation                       *
*                    School of Molecular and Life Sciences                     *
*                    Curtin University, Western Australia                      *
********************************************************************************
* Version = 6.0.0 * Last modified =  12th July 2021                            *
********************************************************************************
*  optimise     - perform optimisation run                                     *
*  conp         - constant pressure calculation                                *
*  nosymmetry   - turn off symmetry after initial structure generation         *
*  conjugate    - use conjugate gradients minimiser                            *
********************************************************************************

  Job Started  at 15:50.08 11th June       2024                               

  Number of CPUs =     1


  Total number of configurations input =      1

********************************************************************************
*  Input for Configuration =   1                                               *
********************************************************************************

  Formula = Al8Mg4O16                                                   

  Number of irreducible atoms/shells =      28


  Total number atoms/shells =      28

  Dimensionality = 3               :  Bulk   



  Cartesian lattice vectors (Angstroms) :

        4.448216    0.000000    0.000000
        0.000000    7.781791    0.000000
        0.000000    0.000000    7.883340

  Cell parameters (Angstroms/Degrees):

  a =       4.4482    alpha =  90.0000
  b =       7.7818    beta  =  90.0000
  c =       7.8833    gamma =  90.0000

  Initial cell volume =         272.882505 Angs**3

  Temperature of configuration =   0.00     K 

  Pressure of configuration =       100.000 GPa 

  Fractional coordinates of asymmetric unit :

--------------------------------------------------------------------------------
   No.  Atomic       x           y          z         Charge      Occupancy
        Label      (Frac)      (Frac)     (Frac)        (e)         (Frac)  
--------------------------------------------------------------------------------
      1 Al    c    0.000000    0.000000    0.879972     3.00000    1.000000    
      2 Al    c    0.000000 *  0.500000 *  0.379972 *   3.00000    1.000000    
      3 Al    c    0.000000 *  0.133181 *  0.625799 *   3.00000    1.000000    
      4 Al    c    0.000000 *  0.866819 *  0.625799 *   3.00000    1.000000    
      5 Al    c    0.000000 *  0.633181 *  0.125799 *   3.00000    1.000000    
      6 Al    c    0.000000 *  0.366819 *  0.125799 *   3.00000    1.000000    
      7 Al    c    0.000000 *  0.000000 *  0.084849 *   3.00000    1.000000    
      8 Al    c    0.000000 *  0.500000 *  0.584849 *   3.00000    1.000000    
      9 Mg    c    0.500000 *  0.000000 *  0.787268 *   2.00000    1.000000    
     10 Mg    c    0.500000 *  0.500000 *  0.287268 *   2.00000    1.000000    
     11 Mg    c    0.000000 *  0.000000 *  0.454193 *   2.00000    1.000000    
     12 Mg    c    0.000000 *  0.500000 *  0.954193 *   2.00000    1.000000    
     13 O     c    0.500000 *  0.189715 *  0.823724 *  -2.00000    1.000000    
     14 O     c    0.500000 *  0.810285 *  0.823724 *  -2.00000    1.000000    
     15 O     c    0.500000 *  0.689715 *  0.323724 *  -2.00000    1.000000    
     16 O     c    0.500000 *  0.310285 *  0.323724 *  -2.00000    1.000000    
     17 O     c    0.000000 *  0.000000 *  0.246246 *  -2.00000    1.000000    
     18 O     c    0.000000 *  0.500000 *  0.746246 *  -2.00000    1.000000    
     19 O     c    0.000000 *  0.000000 *  0.598993 *  -2.00000    1.000000    
     20 O     c    0.000000 *  0.500000 *  0.098993 *  -2.00000    1.000000    
     21 O     c    0.220027 *  0.862735 *  0.936035 *  -2.00000    1.000000    
     22 O     c    0.779973 *  0.137265 *  0.936035 *  -2.00000    1.000000    
     23 O     c    0.220027 *  0.137265 *  0.936035 *  -2.00000    1.000000    
     24 O     c    0.779973 *  0.862735 *  0.936035 *  -2.00000    1.000000    
     25 O     c    0.220027 *  0.362735 *  0.436035 *  -2.00000    1.000000    
     26 O     c    0.779973 *  0.637265 *  0.436035 *  -2.00000    1.000000    
     27 O     c    0.220027 *  0.637265 *  0.436035 *  -2.00000    1.000000    
     28 O     c    0.779973 *  0.362735 *  0.436035 *  -2.00000    1.000000    
--------------------------------------------------------------------------------



********************************************************************************
*  General input information                                                   *
********************************************************************************

  Species output for all configurations : 

--------------------------------------------------------------------------------
  Species    Type    Atomic    Atomic    Charge       Radii (Angs)     Library
                     Number     Mass       (e)     Cova   Ionic  VDW   Symbol
--------------------------------------------------------------------------------
    Mg       Core       12      24.31   2.000000   1.100  0.000  1.640          
    Al       Core       13      26.98   3.000000   1.350  0.000  2.050          
    O        Core        8      16.00  -2.000000   0.730  0.000  1.360          
--------------------------------------------------------------------------------


  Lattice summation method               =    Ewald          (3-D)
                                         =    Parry          (2-D)
                                         =    Saunders et al (1-D)
  Accuracy factor for lattice sums       =   12.000


  Analytic derivatives to be used

  Time limit = Infinity

  Maximum range for interatomic potentials =    100000.000000 Angstroms

  General interatomic potentials :

--------------------------------------------------------------------------------
Atom  Types   Potential      Parameter       Value         Units   Cutoffs(Ang)
  1     2                                                            Min /  Max 
--------------------------------------------------------------------------------
O    c Mg   c Lennard       Lennard-Jones A  1.5000000    eV*Ang^m  0.000  6.000
                            Lennard-Jones B  0.0000000    eV*Ang^n  
                            Exponent m        12          None
                            Exponent n         6          None
--------------------------------------------------------------------------------
O    c Al   c Lennard       Lennard-Jones A  1.5000000    eV*Ang^m  0.000  6.000
                            Lennard-Jones B  0.0000000    eV*Ang^n  
                            Exponent m        12          None
                            Exponent n         6          None
--------------------------------------------------------------------------------
O    c O    c Lennard       Lennard-Jones A  1.5000000    eV*Ang^m  0.000  6.000
                            Lennard-Jones B  0.0000000    eV*Ang^n  
                            Exponent m        12          None
                            Exponent n         6          None
--------------------------------------------------------------------------------
Mg   c Mg   c Lennard       Lennard-Jones A  1.5000000    eV*Ang^m  0.000  6.000
                            Lennard-Jones B  0.0000000    eV*Ang^n  
                            Exponent m        12          None
                            Exponent n         6          None
--------------------------------------------------------------------------------
Mg   c Al   c Lennard       Lennard-Jones A  1.5000000    eV*Ang^m  0.000  6.000
                            Lennard-Jones B  0.0000000    eV*Ang^n  
                            Exponent m        12          None
                            Exponent n         6          None
--------------------------------------------------------------------------------
Al   c Al   c Lennard       Lennard-Jones A  1.5000000    eV*Ang^m  0.000  6.000
                            Lennard-Jones B  0.0000000    eV*Ang^n  
                            Exponent m        12          None
                            Exponent n         6          None
--------------------------------------------------------------------------------
O    c Mg   c Buckingham    Buckingham A     1428.5000    eV        0.000  7.000
                            Buckingham rho  0.29450000    Ang       
                            Buckingham C     0.0000000    eV*Ang^6  
--------------------------------------------------------------------------------
O    c Al   c Buckingham    Buckingham A     1114.9000    eV        0.000  7.000
                            Buckingham rho  0.31180000    Ang       
                            Buckingham C     0.0000000    eV*Ang^6  
--------------------------------------------------------------------------------
O    c O    c Buckingham    Buckingham A     2023.8000    eV        0.000  7.000
                            Buckingham rho  0.26740000    Ang       
                            Buckingham C     0.0000000    eV*Ang^6  
--------------------------------------------------------------------------------

********************************************************************************
*  Output for configuration   1                                                *
********************************************************************************


  Components of enthalpy : 

--------------------------------------------------------------------------------
  Interatomic potentials     =         466.69925410 eV    
  Monopole - monopole (real) =        -440.72719304 eV    
  Monopole - monopole (recip)=        -435.00109649 eV    
  Monopole - monopole (total)=        -875.72828953 eV    
  Pressure*volume            =         170.31854862 eV    
--------------------------------------------------------------------------------
  Total lattice enthalpy     =        -238.71048681 eV    
--------------------------------------------------------------------------------
  Total lattice enthalpy     =          -23031.9130 kJ/(mole unit cells)
--------------------------------------------------------------------------------


  Number of variables =       87

  Maximum number of calculations  =           850
  Maximum Hessian update interval =            10
  Maximum step size               =   1.000000000
  Maximum parameter tolerance     =   0.000010000
  Maximum function  tolerance     =   0.000010000
  Maximum gradient  tolerance     =   0.001000000
  Maximum gradient  component     =   0.010000000

  Cell parameters to be optimised using strains

  Conjugate gradient optimiser to be used

  Lower half triangular hessian to be used

  Minimiser to switch to RFO
  When gradient norm is less than     0.010000

  Start of bulk optimisation :

  Cycle:      0 Energy:      -238.710487  Gnorm:     27.533731  CPU:    0.033
  Cycle:      1 Energy:      -413.484059  Gnorm:     14.207837  CPU:    0.091
  Cycle:      2 Energy:      -448.308195  Gnorm:      8.298993  CPU:    0.138
  Cycle:      3 Energy:      -475.388956  Gnorm:      6.569892  CPU:    0.196
  Cycle:      4 Energy:      -504.673390  Gnorm:      3.424109  CPU:    0.243
  Cycle:      5 Energy:      -512.018921  Gnorm:      2.879057  CPU:    0.290
  Cycle:      6 Energy:      -519.606855  Gnorm:      2.851131  CPU:    0.341
  Cycle:      7 Energy:      -523.565163  Gnorm:      1.338187  CPU:    0.380
  Cycle:      8 Energy:      -525.470999  Gnorm:      0.911889  CPU:    0.432
  Cycle:      9 Energy:      -526.101325  Gnorm:      0.717188  CPU:    0.471
  Cycle:     10 Energy:      -526.332552  Gnorm:      0.506247  CPU:    0.511
  Cycle:     11 Energy:      -526.598192  Gnorm:      0.444911  CPU:    0.562
  Cycle:     12 Energy:      -526.785104  Gnorm:      0.504654  CPU:    0.610
  Cycle:     13 Energy:      -527.041562  Gnorm:      0.527863  CPU:    0.658
  Cycle:     14 Energy:      -527.308200  Gnorm:      0.479078  CPU:    0.710
  Cycle:     15 Energy:      -527.677523  Gnorm:      0.635656  CPU:    0.758
  Cycle:     16 Energy:      -528.182312  Gnorm:      0.835799  CPU:    0.806
  Cycle:     17 Energy:      -528.473976  Gnorm:      0.432936  CPU:    0.858
  Cycle:     18 Energy:      -528.704636  Gnorm:      0.422618  CPU:    0.907
  Cycle:     19 Energy:      -528.836035  Gnorm:      0.443855  CPU:    0.947
  Cycle:     20 Energy:      -528.911465  Gnorm:      0.322879  CPU:    0.990
  Cycle:     21 Energy:      -529.037779  Gnorm:      0.355154  CPU:    1.038
  Cycle:     22 Energy:      -529.202698  Gnorm:      0.554123  CPU:    1.087
  Cycle:     23 Energy:      -529.505154  Gnorm:      0.602875  CPU:    1.139
  Cycle:     24 Energy:      -529.831865  Gnorm:      0.514629  CPU:    1.178
  Cycle:     25 Energy:      -530.000017  Gnorm:      0.340985  CPU:    1.218
  Cycle:     26 Energy:      -530.093612  Gnorm:      0.327861  CPU:    1.270
  Cycle:     27 Energy:      -530.173965  Gnorm:      0.255907  CPU:    1.318
  Cycle:     28 Energy:      -530.239577  Gnorm:      0.251394  CPU:    1.366
  Cycle:     29 Energy:      -530.284078  Gnorm:      0.297291  CPU:    1.410
  Cycle:     30 Energy:      -530.311150  Gnorm:      0.174506  CPU:    1.449
  Cycle:     31 Energy:      -530.334806  Gnorm:      0.174152  CPU:    1.498
  Cycle:     32 Energy:      -530.359561  Gnorm:      0.188510  CPU:    1.550
  Cycle:     33 Energy:      -530.397755  Gnorm:      0.214247  CPU:    1.599
  Cycle:     34 Energy:      -530.444719  Gnorm:      0.225641  CPU:    1.647
  Cycle:     35 Energy:      -530.493920  Gnorm:      0.199968  CPU:    1.700
  Cycle:     36 Energy:      -530.537536  Gnorm:      0.257446  CPU:    1.748
  Cycle:     37 Energy:      -530.572394  Gnorm:      0.235731  CPU:    1.792
  Cycle:     38 Energy:      -530.612537  Gnorm:      0.173263  CPU:    1.840
  Cycle:     39 Energy:      -530.640043  Gnorm:      0.197359  CPU:    1.888
  Cycle:     40 Energy:      -530.653147  Gnorm:      0.143599  CPU:    1.928
  Cycle:     41 Energy:      -530.667477  Gnorm:      0.106472  CPU:    1.976
  Cycle:     42 Energy:      -530.680173  Gnorm:      0.106458  CPU:    2.025
  Cycle:     43 Energy:      -530.685770  Gnorm:      0.070960  CPU:    2.064
  Cycle:     44 Energy:      -530.689894  Gnorm:      0.065315  CPU:    2.113
  Cycle:     45 Energy:      -530.693170  Gnorm:      0.052196  CPU:    2.156
  Cycle:     46 Energy:      -530.695011  Gnorm:      0.053862  CPU:    2.196
  Cycle:     47 Energy:      -530.696439  Gnorm:      0.041866  CPU:    2.236
  Cycle:     48 Energy:      -530.698276  Gnorm:      0.038418  CPU:    2.288
  Cycle:     49 Energy:      -530.700141  Gnorm:      0.053012  CPU:    2.328
  Cycle:     50 Energy:      -530.701388  Gnorm:      0.032940  CPU:    2.368
  Cycle:     51 Energy:      -530.702031  Gnorm:      0.034724  CPU:    2.411
  Cycle:     52 Energy:      -530.702811  Gnorm:      0.027111  CPU:    2.460
  Cycle:     53 Energy:      -530.703613  Gnorm:      0.026639  CPU:    2.508
  Cycle:     54 Energy:      -530.704420  Gnorm:      0.031335  CPU:    2.552
  Cycle:     55 Energy:      -530.705160  Gnorm:      0.029416  CPU:    2.591
  Cycle:     56 Energy:      -530.705867  Gnorm:      0.031743  CPU:    2.640
  Cycle:     57 Energy:      -530.706891  Gnorm:      0.027079  CPU:    2.692
  Cycle:     58 Energy:      -530.707285  Gnorm:      0.026936  CPU:    2.731
  Cycle:     59 Energy:      -530.707712  Gnorm:      0.020613  CPU:    2.780
  Cycle:     60 Energy:      -530.708009  Gnorm:      0.019570  CPU:    2.823
  Cycle:     61 Energy:      -530.708175  Gnorm:      0.015464  CPU:    2.863
  Cycle:     62 Energy:      -530.708415  Gnorm:      0.012926  CPU:    2.903
  Cycle:     63 Energy:      -530.708495  Gnorm:      0.009542  CPU:    2.946
  ** Hessian has wrong structure
  ** Imaginary eigenvectors =  24
  ** Hessian has wrong structure
  ** Imaginary eigenvectors =  24
  Cycle:     64 Energy:      -530.916597  Gnorm:      0.295608  CPU:    3.318
  ** Hessian has wrong structure
  ** Imaginary eigenvectors =  24
  Cycle:     65 Energy:      -531.835504  Gnorm:      0.633061  CPU:    3.481
  ** Hessian has wrong structure
  ** Imaginary eigenvectors =  23
  Cycle:     66 Energy:      -533.815628  Gnorm:      0.975272  CPU:    3.694
  ** Hessian has wrong structure
  ** Imaginary eigenvectors =  23
  Cycle:     67 Energy:      -539.649969  Gnorm:      1.428758  CPU:    3.961
  ** Hessian has wrong structure
  ** Imaginary eigenvectors =  20
  ** Hessian has wrong structure
  ** Imaginary eigenvectors =  20
  Cycle:     68 Energy:      -541.696732  Gnorm:      1.519627  CPU:    4.338
  ** Hessian has wrong structure
  ** Imaginary eigenvectors =  20
  ** Hessian has wrong structure
  ** Imaginary eigenvectors =  20
  Cycle:     69 Energy:      -547.223946  Gnorm:      1.690941  CPU:    4.718
  ** Hessian has wrong structure
  ** Imaginary eigenvectors =  20
  Cycle:     70 Energy:      -559.881040  Gnorm:      4.688560  CPU:    4.891
  ** Hessian has wrong structure
  ** Imaginary eigenvectors =  16
  Cycle:     71 Energy:      -568.378748  Gnorm:      2.830131  CPU:    5.113
  ** Hessian has wrong structure
  ** Imaginary eigenvectors =  15
  ** Hessian has wrong structure
  ** Imaginary eigenvectors =  14
  Cycle:     72 Energy:      -576.960795  Gnorm:      3.659597  CPU:    5.481
  ** Hessian has wrong structure
  ** Imaginary eigenvectors =  13
  ** Hessian has wrong structure
  ** Imaginary eigenvectors =  11
  Cycle:     73 Energy:      -584.527743  Gnorm:      3.052025  CPU:    5.731
  ** Hessian has wrong structure
  ** Imaginary eigenvectors =  10
  ** Hessian has wrong structure
  ** Imaginary eigenvectors =  11
  Cycle:     74 Energy:      -593.022601  Gnorm:      3.240974  CPU:    5.957
  ** Hessian has wrong structure
  ** Imaginary eigenvectors =  10
  ** Hessian has wrong structure
  ** Imaginary eigenvectors =  11
  Cycle:     75 Energy:      -596.184665  Gnorm:      3.641550  CPU:    6.173
  ** Hessian has wrong structure
  ** Imaginary eigenvectors =  10
  ** Hessian has wrong structure
  ** Imaginary eigenvectors =  11
  Cycle:     76 Energy:      -598.506483  Gnorm:      3.646940  CPU:    6.447
  ** Hessian has wrong structure
  ** Imaginary eigenvectors =  10
  ** Hessian has wrong structure
  ** Imaginary eigenvectors =  12
  Cycle:     77 Energy:      -600.263819  Gnorm:      3.349974  CPU:    6.708
  ** Hessian has wrong structure
  ** Imaginary eigenvectors =  12
  ** Hessian has wrong structure
  ** Imaginary eigenvectors =  12
  Cycle:     78 Energy:      -602.739141  Gnorm:      3.043441  CPU:    7.086
  ** Hessian has wrong structure
  ** Imaginary eigenvectors =  10
  ** Hessian has wrong structure
  ** Imaginary eigenvectors =   9
  Cycle:     79 Energy:      -603.699760  Gnorm:      3.049514  CPU:    7.446
  ** Hessian has wrong structure
  ** Imaginary eigenvectors =  10
  ** Hessian has wrong structure
  ** Imaginary eigenvectors =  10
  Cycle:     80 Energy:      -604.936905  Gnorm:      2.996772  CPU:    7.775
  ** Hessian has wrong structure
  ** Imaginary eigenvectors =  10
  ** Hessian has wrong structure
  ** Imaginary eigenvectors =  10
  Cycle:     81 Energy:      -608.538709  Gnorm:      2.814596  CPU:    8.025
  ** Hessian has wrong structure
  ** Imaginary eigenvectors =  10
  ** Hessian has wrong structure
  ** Imaginary eigenvectors =   8
  Cycle:     82 Energy:      -608.965708  Gnorm:      2.811917  CPU:    8.307
  ** Hessian calculated **
  Cycle:     83 Energy:      -619.192542  Gnorm:      2.337210  CPU:    8.453
  ** Hessian has wrong structure
  ** Imaginary eigenvectors =   7
  ** Hessian has wrong structure
  ** Imaginary eigenvectors =   8
  Cycle:     84 Energy:      -621.878654  Gnorm:      2.185573  CPU:    8.856
  ** Hessian has wrong structure
  ** Imaginary eigenvectors =   7
  ** Hessian has wrong structure
  ** Imaginary eigenvectors =   7
  Cycle:     85 Energy:      -624.061327  Gnorm:      1.998282  CPU:    9.140
  ** Hessian has wrong structure
  ** Imaginary eigenvectors =   6
  ** Hessian has wrong structure
  ** Imaginary eigenvectors =   6
  Cycle:     86 Energy:      -627.752349  Gnorm:      1.740006  CPU:    9.423
  ** Hessian has wrong structure
  ** Imaginary eigenvectors =   5
  ** Hessian has wrong structure
  ** Imaginary eigenvectors =   4
  Cycle:     87 Energy:      -628.974465  Gnorm:      1.615293  CPU:    9.727
  ** Hessian has wrong structure
  ** Imaginary eigenvectors =   4
  ** Hessian has wrong structure
  ** Imaginary eigenvectors =   4
  Cycle:     88 Energy:      -631.172350  Gnorm:      1.647356  CPU:   10.178
  ** Hessian calculated **
  Cycle:     89 Energy:      -634.465355  Gnorm:      1.395473  CPU:   10.336
  ** Hessian has required structure
  Cycle:     90 Energy:      -635.208594  Gnorm:      0.759250  CPU:   10.426
  ** Hessian has required structure
  Cycle:     91 Energy:      -635.619648  Gnorm:      0.794679  CPU:   10.503
  ** Hessian has required structure
  Cycle:     92 Energy:      -636.052874  Gnorm:      0.939486  CPU:   10.593
  ** Hessian has required structure
  Cycle:     93 Energy:      -636.265026  Gnorm:      0.809995  CPU:   10.670
  ** Hessian has required structure
  Cycle:     94 Energy:      -637.117249  Gnorm:      1.286693  CPU:   10.760
  ** Hessian has required structure
  Cycle:     95 Energy:      -637.305921  Gnorm:      0.962118  CPU:   10.851
  ** Hessian has required structure
  Cycle:     96 Energy:      -637.685027  Gnorm:      1.027403  CPU:   10.942
  ** Hessian has required structure
  Cycle:     97 Energy:      -638.059278  Gnorm:      0.653560  CPU:   11.019
  ** Hessian has required structure
  Cycle:     98 Energy:      -638.255741  Gnorm:      0.636186  CPU:   11.110
  ** Hessian has wrong structure
  ** Imaginary eigenvectors =   2
  Cycle:     99 Energy:      -638.657150  Gnorm:      0.691742  CPU:   11.405
  ** Hessian has wrong structure
  ** Imaginary eigenvectors =   2
  Cycle:    100 Energy:      -640.576751  Gnorm:      0.782567  CPU:   11.744
  ** Hessian has wrong structure
  ** Imaginary eigenvectors =   1
  Cycle:    101 Energy:      -640.829512  Gnorm:      0.954651  CPU:   12.080
  ** Hessian has wrong structure
  ** Imaginary eigenvectors =   1
  Cycle:    102 Energy:      -643.211638  Gnorm:      1.306941  CPU:   12.492
  ** Hessian has required structure
  Cycle:    103 Energy:      -645.685541  Gnorm:      0.636387  CPU:   12.713
  ** Hessian has required structure
  Cycle:    104 Energy:      -646.633194  Gnorm:      0.395568  CPU:   12.863
  ** Hessian has required structure
  Cycle:    105 Energy:      -647.041097  Gnorm:      0.268190  CPU:   12.995
  ** Hessian has required structure
  Cycle:    106 Energy:      -647.216396  Gnorm:      0.297579  CPU:   13.107
  ** Hessian has required structure
  Cycle:    107 Energy:      -647.375473  Gnorm:      0.292579  CPU:   13.239
  ** Hessian has required structure
  Cycle:    108 Energy:      -647.533423  Gnorm:      0.208195  CPU:   13.372
  ** Hessian has required structure
  Cycle:    109 Energy:      -647.627194  Gnorm:      0.149342  CPU:   13.484
  ** Hessian has required structure
  Cycle:    110 Energy:      -647.676006  Gnorm:      0.145988  CPU:   13.595
  ** Hessian has required structure
  Cycle:    111 Energy:      -647.763984  Gnorm:      0.193938  CPU:   13.728
  ** Hessian has required structure
  Cycle:    112 Energy:      -647.852314  Gnorm:      0.207923  CPU:   13.840
  ** Hessian has wrong structure
  ** Imaginary eigenvectors =   1
  Cycle:    113 Energy:      -648.322032  Gnorm:      0.428939  CPU:   14.270
  ** Hessian has required structure
  Cycle:    114 Energy:      -648.845567  Gnorm:      0.440649  CPU:   14.507
  ** Hessian has required structure
  Cycle:    115 Energy:      -649.261082  Gnorm:      0.242721  CPU:   14.615
  ** Hessian has required structure
  Cycle:    116 Energy:      -649.379728  Gnorm:      0.162944  CPU:   14.727
  ** Hessian has required structure
  Cycle:    117 Energy:      -649.421708  Gnorm:      0.082498  CPU:   14.838
  ** Hessian has required structure
  Cycle:    118 Energy:      -649.434273  Gnorm:      0.064975  CPU:   14.950
  ** Hessian has required structure
  Cycle:    119 Energy:      -649.441806  Gnorm:      0.027772  CPU:   15.082
  ** Hessian has required structure
  Cycle:    120 Energy:      -649.444428  Gnorm:      0.020480  CPU:   15.194
  ** Hessian has required structure
  Cycle:    121 Energy:      -649.445771  Gnorm:      0.016686  CPU:   15.305
  ** Hessian has required structure
  Cycle:    122 Energy:      -649.446572  Gnorm:      0.008991  CPU:   15.416
  ** Hessian has required structure
  Cycle:    123 Energy:      -649.446792  Gnorm:      0.004309  CPU:   15.527
  ** Hessian has required structure
  Cycle:    124 Energy:      -649.446833  Gnorm:      0.000080  CPU:   15.748
  ** Hessian has required structure


  **** Optimisation achieved ****


  Final enthalpy =    -649.44683327 eV      
  Final Gnorm    =       0.00000301

  Components of enthalpy : 

--------------------------------------------------------------------------------
  Interatomic potentials     =         218.96955329 eV    
  Monopole - monopole (real) =        -504.22690139 eV    
  Monopole - monopole (recip)=        -491.15303935 eV    
  Monopole - monopole (total)=        -995.37994075 eV    
  Pressure*volume            =         126.96355419 eV    
--------------------------------------------------------------------------------
  Total lattice enthalpy     =        -649.44683327 eV    
--------------------------------------------------------------------------------
  Total lattice enthalpy     =          -62661.6917 kJ/(mole unit cells)
--------------------------------------------------------------------------------

  Final fractional coordinates of atoms :

--------------------------------------------------------------------------------
   No.  Atomic        x           y          z          Radius
        Label       (Frac)      (Frac)     (Frac)       (Angs) 
--------------------------------------------------------------------------------
     1  Al    c     0.000000    0.000000    0.879972    0.000000
     2  Al    c     0.047587    0.321345    0.288723    0.000000
     3  Al    c     0.957637    0.016175    0.607901    0.000000
     4  Al    c     0.326001    0.695371    0.719774    0.000000
     5  Al    c     0.652412    0.667434    0.201663    0.000000
     6  Al    c     0.872601    0.327678    0.042930    0.000000
     7  Al    c     0.410015    0.013741    0.132934    0.000000
     8  Al    c     0.612343    0.349356    0.545125    0.000000
     9  Mg    c     0.183639    0.343299    0.793288    0.000000
    10  Mg    c     0.215813    0.650978    0.438144    0.000000
    11  Mg    c     0.380166    0.987725    0.381382    0.000000
    12  Mg    c     0.886306    0.665705    0.955357    0.000000
    13  O     c     0.376142    0.882891    0.546982    0.000000
    14  O     c     0.774938    0.549006    0.777209    0.000000
    15  O     c     0.186018    0.780270    0.125515    0.000000
    16  O     c     0.487680    0.270520    0.158176    0.000000
    17  O     c     0.912238    0.066212    0.256260    0.000000
    18  O     c     0.575952    0.202099    0.666347    0.000000
    19  O     c     0.911816    0.879111    0.726593    0.000000
    20  O     c     0.094712    0.525526    0.220125    0.000000
    21  O     c     0.920256    0.052399    0.035321    0.000000
    22  O     c     0.413830    0.823116    0.890006    0.000000
    23  O     c     0.590653    0.185915    0.885552    0.000000
    24  O     c     0.384215    0.471003    0.000157    0.000000
    25  O     c     0.010641    0.175084    0.485991    0.000000
    26  O     c     0.204682    0.519770    0.585886    0.000000
    27  O     c     0.755430    0.777546    0.349347    0.000000
    28  O     c     0.603456    0.407010    0.389682    0.000000
--------------------------------------------------------------------------------

  Final Cartesian lattice vectors (Angstroms) :

        2.661781   -0.286663   -0.107390
       -0.495817    7.099568   -0.496407
       -0.402920   -1.015023   10.939772


  Final cell parameters and derivatives :

--------------------------------------------------------------------------------
       a            2.679326 Angstrom     dE/de1(xx)     0.000027 eV/strain
       b            7.134151 Angstrom     dE/de2(yy)     0.000046 eV/strain
       c           10.994145 Angstrom     dE/de3(zz)     0.000023 eV/strain
       alpha       99.123735 Degrees      dE/de4(yz)     0.000171 eV/strain
       beta        93.808027 Degrees      dE/de5(xz)     0.000022 eV/strain
       gamma       99.946424 Degrees      dE/de6(xy)     0.000113 eV/strain
--------------------------------------------------------------------------------

  Primitive cell volume =           203.419610 Angs**3

  Density of cell =      4.645543 g/cm**3

  Non-primitive cell volume =           203.419610 Angs**3


  Final internal derivatives :

--------------------------------------------------------------------------------
   No.  Atomic          a             b             c           Radius
        Label          (eV)          (eV)          (eV)        (eV/Angs)
--------------------------------------------------------------------------------
      1 Al    c       0.000000      0.000000      0.000000      0.000000
      2 Al    c       0.000014     -0.000020     -0.000007      0.000000
      3 Al    c      -0.000000     -0.000002      0.000003      0.000000
      4 Al    c       0.000000     -0.000008     -0.000026      0.000000
      5 Al    c      -0.000006      0.000022      0.000025      0.000000
      6 Al    c       0.000004     -0.000005     -0.000010      0.000000
      7 Al    c       0.000007     -0.000016      0.000004      0.000000
      8 Al    c       0.000000      0.000005     -0.000002      0.000000
      9 Mg    c       0.000005      0.000002      0.000027      0.000000
     10 Mg    c       0.000004      0.000016     -0.000001      0.000000
     11 Mg    c      -0.000012     -0.000015      0.000063      0.000000
     12 Mg    c      -0.000001     -0.000006     -0.000013      0.000000
     13 O     c       0.000000     -0.000005      0.000006      0.000000
     14 O     c       0.000000      0.000005     -0.000011      0.000000
     15 O     c       0.000010     -0.000001     -0.000018      0.000000
     16 O     c       0.000007     -0.000002      0.000002      0.000000
     17 O     c       0.000007      0.000025     -0.000051      0.000000
     18 O     c      -0.000005     -0.000022     -0.000008      0.000000
     19 O     c      -0.000003      0.000004     -0.000018      0.000000
     20 O     c      -0.000008     -0.000004     -0.000013      0.000000
     21 O     c       0.000001     -0.000025      0.000021      0.000000
     22 O     c      -0.000000     -0.000006      0.000027      0.000000
     23 O     c      -0.000002     -0.000000     -0.000013      0.000000
     24 O     c      -0.000012      0.000048     -0.000033      0.000000
     25 O     c      -0.000004      0.000023      0.000008      0.000000
     26 O     c      -0.000002     -0.000002      0.000007      0.000000
     27 O     c       0.000005     -0.000018     -0.000026      0.000000
     28 O     c      -0.000011      0.000001      0.000042      0.000000
--------------------------------------------------------------------------------
  Maximum abs         0.000014      0.000048      0.000063      0.000000
--------------------------------------------------------------------------------


  Time to end of optimisation =      15.8559 seconds


  Peak dynamic memory used =       2.03 MB 


  Timing analysis for GULP :

--------------------------------------------------------------------------------
  Task / Subroutine                                          Time (Seconds)
--------------------------------------------------------------------------------
  Calculation of reciprocal space energy and derivatives          1.0659
  Calculation of real space energy and derivatives               13.3086
  Calculation and manipulation of Hessian matrix                  3.5101
  Calculation of matrix inversion                                 0.0033
  Global summation overhead                                       0.0011
--------------------------------------------------------------------------------
  Total CPU time                                                 15.8560
--------------------------------------------------------------------------------


  Job Finished at 15:50.24 11th June       2024                               

