********************************************************************************
*                       GENERAL UTILITY LATTICE PROGRAM                        *
*                                 Julian Gale                                  *
*                       Curtin Institute for Computation                       *
*                    School of Molecular and Life Sciences                     *
*                    Curtin University, Western Australia                      *
********************************************************************************
* Version = 6.0.0 * Last modified =  12th July 2021                            *
********************************************************************************
*  optimise     - perform optimisation run                                     *
*  conp         - constant pressure calculation                                *
*  nosymmetry   - turn off symmetry after initial structure generation         *
*  conjugate    - use conjugate gradients minimiser                            *
********************************************************************************

  Job Started  at 15:44.15 11th June       2024                               

  Number of CPUs =     1


  Total number of configurations input =      1

********************************************************************************
*  Input for Configuration =   1                                               *
********************************************************************************

  Formula = Al8Mg4O16                                                   

  Number of irreducible atoms/shells =      28


  Total number atoms/shells =      28

  Dimensionality = 3               :  Bulk   



  Cartesian lattice vectors (Angstroms) :

        8.430670    0.000000    0.000000
        0.000000    4.929623    0.000000
        0.000000    0.000000    8.697045

  Cell parameters (Angstroms/Degrees):

  a =       8.4307    alpha =  90.0000
  b =       4.9296    beta  =  90.0000
  c =       8.6970    gamma =  90.0000

  Initial cell volume =         361.449371 Angs**3

  Temperature of configuration =   0.00     K 

  Pressure of configuration =       100.000 GPa 

  Fractional coordinates of asymmetric unit :

--------------------------------------------------------------------------------
   No.  Atomic       x           y          z         Charge      Occupancy
        Label      (Frac)      (Frac)     (Frac)        (e)         (Frac)  
--------------------------------------------------------------------------------
      1 Al    c    0.933209    0.176811    0.942797     3.00000    1.000000    
      2 Al    c    0.066791 *  0.823189 *  0.442797 *   3.00000    1.000000    
      3 Al    c    0.433209 *  0.323189 *  0.942797 *   3.00000    1.000000    
      4 Al    c    0.566791 *  0.676811 *  0.442797 *   3.00000    1.000000    
      5 Al    c    0.228472 *  0.967273 *  0.951252 *   3.00000    1.000000    
      6 Al    c    0.771528 *  0.032727 *  0.451252 *   3.00000    1.000000    
      7 Al    c    0.728472 *  0.532727 *  0.951252 *   3.00000    1.000000    
      8 Al    c    0.271528 *  0.467273 *  0.451252 *   3.00000    1.000000    
      9 Mg    c    0.111796 *  0.445754 *  0.046047 *   2.00000    1.000000    
     10 Mg    c    0.888204 *  0.554246 *  0.546047 *   2.00000    1.000000    
     11 Mg    c    0.611796 *  0.054246 *  0.046047 *   2.00000    1.000000    
     12 Mg    c    0.388204 *  0.945754 *  0.546047 *   2.00000    1.000000    
     13 O     c    0.604130 *  0.764917 *  0.004999 *  -2.00000    1.000000    
     14 O     c    0.395870 *  0.235083 *  0.504999 *  -2.00000    1.000000    
     15 O     c    0.104130 *  0.735083 *  0.004999 *  -2.00000    1.000000    
     16 O     c    0.895870 *  0.264917 *  0.504999 *  -2.00000    1.000000    
     17 O     c    0.459382 *  0.550234 *  0.370982 *  -2.00000    1.000000    
     18 O     c    0.540618 *  0.449766 *  0.870982 *  -2.00000    1.000000    
     19 O     c    0.959382 *  0.949766 *  0.370982 *  -2.00000    1.000000    
     20 O     c    0.040618 *  0.050234 *  0.870982 *  -2.00000    1.000000    
     21 O     c    0.560118 *  0.331923 *  0.539780 *  -2.00000    1.000000    
     22 O     c    0.439882 *  0.668077 *  0.039780 *  -2.00000    1.000000    
     23 O     c    0.060118 *  0.168077 *  0.539780 *  -2.00000    1.000000    
     24 O     c    0.939882 *  0.831923 *  0.039780 *  -2.00000    1.000000    
     25 O     c    0.902657 *  0.804286 *  0.734230 *  -2.00000    1.000000    
     26 O     c    0.097343 *  0.195714 *  0.234230 *  -2.00000    1.000000    
     27 O     c    0.402657 *  0.695714 *  0.734230 *  -2.00000    1.000000    
     28 O     c    0.597343 *  0.304286 *  0.234230 *  -2.00000    1.000000    
--------------------------------------------------------------------------------



********************************************************************************
*  General input information                                                   *
********************************************************************************

  Species output for all configurations : 

--------------------------------------------------------------------------------
  Species    Type    Atomic    Atomic    Charge       Radii (Angs)     Library
                     Number     Mass       (e)     Cova   Ionic  VDW   Symbol
--------------------------------------------------------------------------------
    Mg       Core       12      24.31   2.000000   1.100  0.000  1.640          
    Al       Core       13      26.98   3.000000   1.350  0.000  2.050          
    O        Core        8      16.00  -2.000000   0.730  0.000  1.360          
--------------------------------------------------------------------------------


  Lattice summation method               =    Ewald          (3-D)
                                         =    Parry          (2-D)
                                         =    Saunders et al (1-D)
  Accuracy factor for lattice sums       =   12.000


  Analytic derivatives to be used

  Time limit = Infinity

  Maximum range for interatomic potentials =    100000.000000 Angstroms

  General interatomic potentials :

--------------------------------------------------------------------------------
Atom  Types   Potential      Parameter       Value         Units   Cutoffs(Ang)
  1     2                                                            Min /  Max 
--------------------------------------------------------------------------------
O    c Mg   c Lennard       Lennard-Jones A  1.5000000    eV*Ang^m  0.000  6.000
                            Lennard-Jones B  0.0000000    eV*Ang^n  
                            Exponent m        12          None
                            Exponent n         6          None
--------------------------------------------------------------------------------
O    c Al   c Lennard       Lennard-Jones A  1.5000000    eV*Ang^m  0.000  6.000
                            Lennard-Jones B  0.0000000    eV*Ang^n  
                            Exponent m        12          None
                            Exponent n         6          None
--------------------------------------------------------------------------------
O    c O    c Lennard       Lennard-Jones A  1.5000000    eV*Ang^m  0.000  6.000
                            Lennard-Jones B  0.0000000    eV*Ang^n  
                            Exponent m        12          None
                            Exponent n         6          None
--------------------------------------------------------------------------------
Mg   c Mg   c Lennard       Lennard-Jones A  1.5000000    eV*Ang^m  0.000  6.000
                            Lennard-Jones B  0.0000000    eV*Ang^n  
                            Exponent m        12          None
                            Exponent n         6          None
--------------------------------------------------------------------------------
Mg   c Al   c Lennard       Lennard-Jones A  1.5000000    eV*Ang^m  0.000  6.000
                            Lennard-Jones B  0.0000000    eV*Ang^n  
                            Exponent m        12          None
                            Exponent n         6          None
--------------------------------------------------------------------------------
Al   c Al   c Lennard       Lennard-Jones A  1.5000000    eV*Ang^m  0.000  6.000
                            Lennard-Jones B  0.0000000    eV*Ang^n  
                            Exponent m        12          None
                            Exponent n         6          None
--------------------------------------------------------------------------------
O    c Mg   c Buckingham    Buckingham A     1428.5000    eV        0.000  7.000
                            Buckingham rho  0.29450000    Ang       
                            Buckingham C     0.0000000    eV*Ang^6  
--------------------------------------------------------------------------------
O    c Al   c Buckingham    Buckingham A     1114.9000    eV        0.000  7.000
                            Buckingham rho  0.31180000    Ang       
                            Buckingham C     0.0000000    eV*Ang^6  
--------------------------------------------------------------------------------
O    c O    c Buckingham    Buckingham A     2023.8000    eV        0.000  7.000
                            Buckingham rho  0.26740000    Ang       
                            Buckingham C     0.0000000    eV*Ang^6  
--------------------------------------------------------------------------------

********************************************************************************
*  Output for configuration   1                                                *
********************************************************************************


  Components of enthalpy : 

--------------------------------------------------------------------------------
  Interatomic potentials     =         225.33798329 eV    
  Monopole - monopole (real) =        -342.44525705 eV    
  Monopole - monopole (recip)=        -402.04933612 eV    
  Monopole - monopole (total)=        -744.49459317 eV    
  Pressure*volume            =         225.59721169 eV    
--------------------------------------------------------------------------------
  Total lattice enthalpy     =        -293.55939819 eV    
--------------------------------------------------------------------------------
  Total lattice enthalpy     =          -28323.9945 kJ/(mole unit cells)
--------------------------------------------------------------------------------


  Number of variables =       87

  Maximum number of calculations  =           850
  Maximum Hessian update interval =            10
  Maximum step size               =   1.000000000
  Maximum parameter tolerance     =   0.000010000
  Maximum function  tolerance     =   0.000010000
  Maximum gradient  tolerance     =   0.001000000
  Maximum gradient  component     =   0.010000000

  Cell parameters to be optimised using strains

  Conjugate gradient optimiser to be used

  Lower half triangular hessian to be used

  Minimiser to switch to RFO
  When gradient norm is less than     0.010000

  Start of bulk optimisation :

  Cycle:      0 Energy:      -293.559398  Gnorm:     16.760291  CPU:    0.031
  Cycle:      1 Energy:      -411.563354  Gnorm:      6.183170  CPU:    0.084
  Cycle:      2 Energy:      -462.297321  Gnorm:      5.499484  CPU:    0.127
  Cycle:      3 Energy:      -517.176801  Gnorm:      5.407137  CPU:    0.181
  Cycle:      4 Energy:      -539.460154  Gnorm:      4.313510  CPU:    0.224
  Cycle:      5 Energy:      -564.513883  Gnorm:      2.990496  CPU:    0.268
  Cycle:      6 Energy:      -576.351493  Gnorm:      2.282387  CPU:    0.313
  Cycle:      7 Energy:      -581.754949  Gnorm:      2.018788  CPU:    0.357
  Cycle:      8 Energy:      -587.627067  Gnorm:      1.979703  CPU:    0.401
  Cycle:      9 Energy:      -595.632006  Gnorm:      2.152551  CPU:    0.446
  Cycle:     10 Energy:      -600.756529  Gnorm:      1.627130  CPU:    0.482
  Cycle:     11 Energy:      -608.221375  Gnorm:      2.136632  CPU:    0.527
  Cycle:     12 Energy:      -613.862117  Gnorm:      1.876943  CPU:    0.577
  Cycle:     13 Energy:      -619.652097  Gnorm:      1.161812  CPU:    0.639
  Cycle:     14 Energy:      -622.138283  Gnorm:      1.028538  CPU:    0.701
  Cycle:     15 Energy:      -624.139102  Gnorm:      0.931055  CPU:    0.763
  Cycle:     16 Energy:      -626.174914  Gnorm:      0.971490  CPU:    0.824
  Cycle:     17 Energy:      -627.967440  Gnorm:      0.909285  CPU:    0.874
  Cycle:     18 Energy:      -629.085636  Gnorm:      0.722006  CPU:    0.923
  Cycle:     19 Energy:      -630.221612  Gnorm:      0.707806  CPU:    0.984
  Cycle:     20 Energy:      -630.734225  Gnorm:      0.573198  CPU:    1.033
  Cycle:     21 Energy:      -631.355920  Gnorm:      0.574333  CPU:    1.094
  Cycle:     22 Energy:      -632.254291  Gnorm:      0.650356  CPU:    1.155
  Cycle:     23 Energy:      -632.929600  Gnorm:      0.545667  CPU:    1.204
  Cycle:     24 Energy:      -633.902670  Gnorm:      0.732332  CPU:    1.266
  Cycle:     25 Energy:      -634.631403  Gnorm:      0.700320  CPU:    1.305
  Cycle:     26 Energy:      -635.615681  Gnorm:      0.751211  CPU:    1.349
  Cycle:     27 Energy:      -636.529933  Gnorm:      0.621196  CPU:    1.386
  Cycle:     28 Energy:      -637.112648  Gnorm:      0.501512  CPU:    1.430
  Cycle:     29 Energy:      -637.430897  Gnorm:      0.494261  CPU:    1.466
  Cycle:     30 Energy:      -637.632279  Gnorm:      0.413251  CPU:    1.502
  Cycle:     31 Energy:      -638.077500  Gnorm:      0.446444  CPU:    1.546
  Cycle:     32 Energy:      -638.507722  Gnorm:      0.491751  CPU:    1.583
  Cycle:     33 Energy:      -638.903504  Gnorm:      0.480980  CPU:    1.629
  Cycle:     34 Energy:      -639.433667  Gnorm:      0.509314  CPU:    1.689
  Cycle:     35 Energy:      -639.995151  Gnorm:      0.484449  CPU:    1.750
  Cycle:     36 Energy:      -640.603890  Gnorm:      0.554169  CPU:    1.811
  Cycle:     37 Energy:      -640.961156  Gnorm:      0.451138  CPU:    1.863
  Cycle:     38 Energy:      -641.385089  Gnorm:      0.443915  CPU:    1.924
  Cycle:     39 Energy:      -641.641126  Gnorm:      0.424515  CPU:    1.975
  Cycle:     40 Energy:      -641.782277  Gnorm:      0.312125  CPU:    2.025
  Cycle:     41 Energy:      -642.002863  Gnorm:      0.322525  CPU:    2.087
  Cycle:     42 Energy:      -642.158790  Gnorm:      0.307710  CPU:    2.138
  Cycle:     43 Energy:      -642.295201  Gnorm:      0.220496  CPU:    2.200
  Cycle:     44 Energy:      -642.435606  Gnorm:      0.247661  CPU:    2.261
  Cycle:     45 Energy:      -642.541080  Gnorm:      0.257846  CPU:    2.312
  Cycle:     46 Energy:      -642.601841  Gnorm:      0.162346  CPU:    2.363
  Cycle:     47 Energy:      -642.657052  Gnorm:      0.131802  CPU:    2.425
  Cycle:     48 Energy:      -642.707621  Gnorm:      0.152427  CPU:    2.488
  Cycle:     49 Energy:      -642.743716  Gnorm:      0.168632  CPU:    2.538
  Cycle:     50 Energy:      -642.763178  Gnorm:      0.108741  CPU:    2.589
  Cycle:     51 Energy:      -642.789304  Gnorm:      0.110661  CPU:    2.640
  Cycle:     52 Energy:      -642.808544  Gnorm:      0.120558  CPU:    2.691
  Cycle:     53 Energy:      -642.836843  Gnorm:      0.115854  CPU:    2.741
  Cycle:     54 Energy:      -642.872936  Gnorm:      0.121905  CPU:    2.803
  Cycle:     55 Energy:      -642.907552  Gnorm:      0.103599  CPU:    2.854
  Cycle:     56 Energy:      -642.943017  Gnorm:      0.126071  CPU:    2.917
  Cycle:     57 Energy:      -642.964689  Gnorm:      0.123632  CPU:    2.968
  Cycle:     58 Energy:      -642.990790  Gnorm:      0.105080  CPU:    3.030
  Cycle:     59 Energy:      -643.011867  Gnorm:      0.149613  CPU:    3.081
  Cycle:     60 Energy:      -643.025454  Gnorm:      0.083351  CPU:    3.132
  Cycle:     61 Energy:      -643.041637  Gnorm:      0.085893  CPU:    3.195
  Cycle:     62 Energy:      -643.052030  Gnorm:      0.084707  CPU:    3.246
  Cycle:     63 Energy:      -643.063769  Gnorm:      0.058026  CPU:    3.297
  Cycle:     64 Energy:      -643.073246  Gnorm:      0.057133  CPU:    3.359
  Cycle:     65 Energy:      -643.080833  Gnorm:      0.050900  CPU:    3.410
  Cycle:     66 Energy:      -643.085398  Gnorm:      0.060890  CPU:    3.461
  Cycle:     67 Energy:      -643.089638  Gnorm:      0.048168  CPU:    3.513
  Cycle:     68 Energy:      -643.095822  Gnorm:      0.042941  CPU:    3.564
  Cycle:     69 Energy:      -643.102762  Gnorm:      0.076170  CPU:    3.626
  Cycle:     70 Energy:      -643.107072  Gnorm:      0.043746  CPU:    3.677
  Cycle:     71 Energy:      -643.110193  Gnorm:      0.039594  CPU:    3.740
  Cycle:     72 Energy:      -643.112731  Gnorm:      0.043044  CPU:    3.791
  Cycle:     73 Energy:      -643.115228  Gnorm:      0.037344  CPU:    3.842
  Cycle:     74 Energy:      -643.118769  Gnorm:      0.038555  CPU:    3.893
  Cycle:     75 Energy:      -643.122974  Gnorm:      0.038749  CPU:    3.944
  Cycle:     76 Energy:      -643.127186  Gnorm:      0.040873  CPU:    3.995
  Cycle:     77 Energy:      -643.132541  Gnorm:      0.048638  CPU:    4.046
  Cycle:     78 Energy:      -643.135734  Gnorm:      0.055250  CPU:    4.097
  Cycle:     79 Energy:      -643.140647  Gnorm:      0.047341  CPU:    4.159
  Cycle:     80 Energy:      -643.144684  Gnorm:      0.049162  CPU:    4.210
  Cycle:     81 Energy:      -643.147234  Gnorm:      0.042393  CPU:    4.261
  Cycle:     82 Energy:      -643.150924  Gnorm:      0.035814  CPU:    4.312
  Cycle:     83 Energy:      -643.153270  Gnorm:      0.038393  CPU:    4.363
  Cycle:     84 Energy:      -643.155504  Gnorm:      0.034698  CPU:    4.414
  Cycle:     85 Energy:      -643.158204  Gnorm:      0.030981  CPU:    4.465
  Cycle:     86 Energy:      -643.160532  Gnorm:      0.029843  CPU:    4.517
  Cycle:     87 Energy:      -643.162989  Gnorm:      0.029224  CPU:    4.575
  Cycle:     88 Energy:      -643.165094  Gnorm:      0.038189  CPU:    4.630
  Cycle:     89 Energy:      -643.167464  Gnorm:      0.055322  CPU:    4.682
  Cycle:     90 Energy:      -643.169663  Gnorm:      0.036181  CPU:    4.737
  Cycle:     91 Energy:      -643.171528  Gnorm:      0.027925  CPU:    4.792
  Cycle:     92 Energy:      -643.173700  Gnorm:      0.028505  CPU:    4.844
  Cycle:     93 Energy:      -643.175890  Gnorm:      0.030715  CPU:    4.898
  Cycle:     94 Energy:      -643.178148  Gnorm:      0.038213  CPU:    4.953
  Cycle:     95 Energy:      -643.179852  Gnorm:      0.035769  CPU:    5.003
  Cycle:     96 Energy:      -643.182283  Gnorm:      0.033160  CPU:    5.058
  Cycle:     97 Energy:      -643.185132  Gnorm:      0.042427  CPU:    5.112
  Cycle:     98 Energy:      -643.187613  Gnorm:      0.039842  CPU:    5.167
  Cycle:     99 Energy:      -643.191361  Gnorm:      0.046502  CPU:    5.228
  Cycle:    100 Energy:      -643.193299  Gnorm:      0.042311  CPU:    5.282
  Cycle:    101 Energy:      -643.196690  Gnorm:      0.033958  CPU:    5.333
  Cycle:    102 Energy:      -643.200385  Gnorm:      0.030590  CPU:    5.387
  Cycle:    103 Energy:      -643.202346  Gnorm:      0.037808  CPU:    5.438
  Cycle:    104 Energy:      -643.204642  Gnorm:      0.034180  CPU:    5.492
  Cycle:    105 Energy:      -643.207291  Gnorm:      0.034599  CPU:    5.543
  Cycle:    106 Energy:      -643.209253  Gnorm:      0.033967  CPU:    5.597
  Cycle:    107 Energy:      -643.210769  Gnorm:      0.035469  CPU:    5.647
  Cycle:    108 Energy:      -643.213399  Gnorm:      0.032424  CPU:    5.712
  Cycle:    109 Energy:      -643.218906  Gnorm:      0.085485  CPU:    5.780
  Cycle:    110 Energy:      -643.223917  Gnorm:      0.037879  CPU:    5.834
  Cycle:    111 Energy:      -643.226413  Gnorm:      0.035164  CPU:    5.885
  Cycle:    112 Energy:      -643.229543  Gnorm:      0.033944  CPU:    5.946
  Cycle:    113 Energy:      -643.232782  Gnorm:      0.044241  CPU:    5.998
  Cycle:    114 Energy:      -643.235250  Gnorm:      0.045050  CPU:    6.052
  Cycle:    115 Energy:      -643.238733  Gnorm:      0.042149  CPU:    6.102
  Cycle:    116 Energy:      -643.243096  Gnorm:      0.050402  CPU:    6.167
  Cycle:    117 Energy:      -643.247390  Gnorm:      0.057941  CPU:    6.218
  Cycle:    118 Energy:      -643.255205  Gnorm:      0.071077  CPU:    6.282
  Cycle:    119 Energy:      -643.265221  Gnorm:      0.087542  CPU:    6.332
  Cycle:    120 Energy:      -643.272977  Gnorm:      0.084034  CPU:    6.386
  Cycle:    121 Energy:      -643.285427  Gnorm:      0.076787  CPU:    6.447
  Cycle:    122 Energy:      -643.297649  Gnorm:      0.064681  CPU:    6.512
  Cycle:    123 Energy:      -643.307776  Gnorm:      0.058762  CPU:    6.562
  Cycle:    124 Energy:      -643.319150  Gnorm:      0.074541  CPU:    6.626
  Cycle:    125 Energy:      -643.327912  Gnorm:      0.083815  CPU:    6.676
  Cycle:    126 Energy:      -643.337592  Gnorm:      0.072575  CPU:    6.729
  Cycle:    127 Energy:      -643.350606  Gnorm:      0.095509  CPU:    6.790
  Cycle:    128 Energy:      -643.365964  Gnorm:      0.107725  CPU:    6.843
  Cycle:    129 Energy:      -643.418022  Gnorm:      0.221719  CPU:    6.904
  Cycle:    130 Energy:      -643.462107  Gnorm:      0.143058  CPU:    6.957
  Cycle:    131 Energy:      -643.491798  Gnorm:      0.125614  CPU:    7.007
  Cycle:    132 Energy:      -643.524322  Gnorm:      0.144231  CPU:    7.071
  Cycle:    133 Energy:      -643.548832  Gnorm:      0.113654  CPU:    7.120
  Cycle:    134 Energy:      -643.578233  Gnorm:      0.109342  CPU:    7.184
  Cycle:    135 Energy:      -643.614928  Gnorm:      0.109848  CPU:    7.244
  Cycle:    136 Energy:      -643.663723  Gnorm:      0.166528  CPU:    7.308
  Cycle:    137 Energy:      -643.707972  Gnorm:      0.203166  CPU:    7.357
  Cycle:    138 Energy:      -643.766783  Gnorm:      0.187599  CPU:    7.410
  Cycle:    139 Energy:      -643.844629  Gnorm:      0.220658  CPU:    7.461
  Cycle:    140 Energy:      -643.905466  Gnorm:      0.187217  CPU:    7.497
  Cycle:    141 Energy:      -643.943864  Gnorm:      0.151740  CPU:    7.537
  Cycle:    142 Energy:      -644.021008  Gnorm:      0.168488  CPU:    7.582
  Cycle:    143 Energy:      -644.068652  Gnorm:      0.170854  CPU:    7.622
  Cycle:    144 Energy:      -644.115887  Gnorm:      0.150794  CPU:    7.666
  Cycle:    145 Energy:      -644.194952  Gnorm:      0.175095  CPU:    7.711
  Cycle:    146 Energy:      -644.273022  Gnorm:      0.259882  CPU:    7.751
  Cycle:    147 Energy:      -644.366389  Gnorm:      0.274159  CPU:    7.788
  Cycle:    148 Energy:      -644.520589  Gnorm:      0.258486  CPU:    7.832
  Cycle:    149 Energy:      -644.678335  Gnorm:      0.390425  CPU:    7.879
  Cycle:    150 Energy:      -644.783437  Gnorm:      0.238312  CPU:    7.916
  Cycle:    151 Energy:      -644.890118  Gnorm:      0.211788  CPU:    7.960
  Cycle:    152 Energy:      -645.010197  Gnorm:      0.195507  CPU:    8.007
  Cycle:    153 Energy:      -645.080914  Gnorm:      0.202077  CPU:    8.044
  Cycle:    154 Energy:      -645.139271  Gnorm:      0.171970  CPU:    8.080
  Cycle:    155 Energy:      -645.221914  Gnorm:      0.181391  CPU:    8.128
  Cycle:    156 Energy:      -645.309038  Gnorm:      0.288255  CPU:    8.177
  Cycle:    157 Energy:      -645.424513  Gnorm:      0.279822  CPU:    8.222
  Cycle:    158 Energy:      -645.655012  Gnorm:      0.339289  CPU:    8.266
  Cycle:    159 Energy:      -645.824104  Gnorm:      0.375043  CPU:    8.302
  Cycle:    160 Energy:      -645.942008  Gnorm:      0.261583  CPU:    8.339
  Cycle:    161 Energy:      -646.023700  Gnorm:      0.187822  CPU:    8.383
  Cycle:    162 Energy:      -646.143377  Gnorm:      0.211887  CPU:    8.427
  Cycle:    163 Energy:      -646.250219  Gnorm:      0.226962  CPU:    8.463
  Cycle:    164 Energy:      -646.318451  Gnorm:      0.215914  CPU:    8.500
  Cycle:    165 Energy:      -646.440292  Gnorm:      0.252361  CPU:    8.544
  Cycle:    166 Energy:      -646.531276  Gnorm:      0.264176  CPU:    8.580
  Cycle:    167 Energy:      -646.660669  Gnorm:      0.278509  CPU:    8.624
  Cycle:    168 Energy:      -646.921236  Gnorm:      0.318357  CPU:    8.668
  Cycle:    169 Energy:      -647.203059  Gnorm:      0.323870  CPU:    8.704
  Cycle:    170 Energy:      -647.369596  Gnorm:      0.302272  CPU:    8.741
  Cycle:    171 Energy:      -647.548830  Gnorm:      0.332073  CPU:    8.785
  Cycle:    172 Energy:      -647.725970  Gnorm:      0.213455  CPU:    8.821
  Cycle:    173 Energy:      -647.834482  Gnorm:      0.209870  CPU:    8.866
  Cycle:    174 Energy:      -647.891274  Gnorm:      0.197373  CPU:    8.902
  Cycle:    175 Energy:      -647.954916  Gnorm:      0.163550  CPU:    8.939
  Cycle:    176 Energy:      -648.046741  Gnorm:      0.179292  CPU:    8.984
  Cycle:    177 Energy:      -648.128662  Gnorm:      0.216165  CPU:    9.024
  Cycle:    178 Energy:      -648.192432  Gnorm:      0.203148  CPU:    9.060
  Cycle:    179 Energy:      -648.290104  Gnorm:      0.157708  CPU:    9.105
  Cycle:    180 Energy:      -648.316804  Gnorm:      0.137357  CPU:    9.141
  Cycle:    181 Energy:      -648.349824  Gnorm:      0.117056  CPU:    9.186
  Cycle:    182 Energy:      -648.382213  Gnorm:      0.100039  CPU:    9.230
  Cycle:    183 Energy:      -648.396947  Gnorm:      0.100335  CPU:    9.266
  Cycle:    184 Energy:      -648.419045  Gnorm:      0.083984  CPU:    9.303
  Cycle:    185 Energy:      -648.442619  Gnorm:      0.085308  CPU:    9.347
  Cycle:    186 Energy:      -648.470173  Gnorm:      0.116705  CPU:    9.391
  Cycle:    187 Energy:      -648.494953  Gnorm:      0.139312  CPU:    9.427
  Cycle:    188 Energy:      -648.523419  Gnorm:      0.109780  CPU:    9.464
  Cycle:    189 Energy:      -648.561533  Gnorm:      0.148458  CPU:    9.508
  Cycle:    190 Energy:      -648.582346  Gnorm:      0.101419  CPU:    9.545
  Cycle:    191 Energy:      -648.595710  Gnorm:      0.073859  CPU:    9.583
  Cycle:    192 Energy:      -648.611899  Gnorm:      0.072505  CPU:    9.628
  Cycle:    193 Energy:      -648.620294  Gnorm:      0.072240  CPU:    9.664
  Cycle:    194 Energy:      -648.628309  Gnorm:      0.046208  CPU:    9.709
  Cycle:    195 Energy:      -648.635941  Gnorm:      0.046257  CPU:    9.753
  Cycle:    196 Energy:      -648.642692  Gnorm:      0.045107  CPU:    9.789
  Cycle:    197 Energy:      -648.651980  Gnorm:      0.064530  CPU:    9.836
  Cycle:    198 Energy:      -648.656805  Gnorm:      0.054245  CPU:    9.875
  Cycle:    199 Energy:      -648.663926  Gnorm:      0.069327  CPU:    9.912
  Cycle:    200 Energy:      -648.667492  Gnorm:      0.041170  CPU:    9.949
  Cycle:    201 Energy:      -648.671311  Gnorm:      0.045468  CPU:    9.986
  Cycle:    202 Energy:      -648.676807  Gnorm:      0.032957  CPU:   10.033
  Cycle:    203 Energy:      -648.679724  Gnorm:      0.036485  CPU:   10.078
  Cycle:    204 Energy:      -648.681728  Gnorm:      0.035690  CPU:   10.115
  Cycle:    205 Energy:      -648.685157  Gnorm:      0.032555  CPU:   10.159
  Cycle:    206 Energy:      -648.688832  Gnorm:      0.047848  CPU:   10.203
  Cycle:    207 Energy:      -648.691562  Gnorm:      0.038700  CPU:   10.239
  Cycle:    208 Energy:      -648.695209  Gnorm:      0.036760  CPU:   10.276
  Cycle:    209 Energy:      -648.698218  Gnorm:      0.050202  CPU:   10.316
  Cycle:    210 Energy:      -648.700303  Gnorm:      0.031827  CPU:   10.353
  Cycle:    211 Energy:      -648.701772  Gnorm:      0.020858  CPU:   10.389
  Cycle:    212 Energy:      -648.703472  Gnorm:      0.024633  CPU:   10.433
  Cycle:    213 Energy:      -648.704867  Gnorm:      0.028317  CPU:   10.469
  Cycle:    214 Energy:      -648.705946  Gnorm:      0.019968  CPU:   10.506
  Cycle:    215 Energy:      -648.707083  Gnorm:      0.020099  CPU:   10.542
  Cycle:    216 Energy:      -648.708065  Gnorm:      0.024413  CPU:   10.578
  Cycle:    217 Energy:      -648.708897  Gnorm:      0.023428  CPU:   10.615
  Cycle:    218 Energy:      -648.710959  Gnorm:      0.024901  CPU:   10.659
  Cycle:    219 Energy:      -648.712324  Gnorm:      0.027269  CPU:   10.695
  Cycle:    220 Energy:      -648.713065  Gnorm:      0.021476  CPU:   10.732
  Cycle:    221 Energy:      -648.714179  Gnorm:      0.018291  CPU:   10.768
  Cycle:    222 Energy:      -648.714873  Gnorm:      0.017275  CPU:   10.805
  Cycle:    223 Energy:      -648.715205  Gnorm:      0.013317  CPU:   10.841
  Cycle:    224 Energy:      -648.715768  Gnorm:      0.011083  CPU:   10.878
  Cycle:    225 Energy:      -648.716139  Gnorm:      0.012390  CPU:   10.914
  Cycle:    226 Energy:      -648.716524  Gnorm:      0.015919  CPU:   10.950
  Cycle:    227 Energy:      -648.716847  Gnorm:      0.010678  CPU:   10.987
  Cycle:    228 Energy:      -648.717113  Gnorm:      0.011016  CPU:   11.027
  Cycle:    229 Energy:      -648.717364  Gnorm:      0.015831  CPU:   11.072
  Cycle:    230 Energy:      -648.717569  Gnorm:      0.009729  CPU:   11.108
  ** Hessian has required structure
  Cycle:    231 Energy:      -648.719946  Gnorm:      0.004725  CPU:   11.280
  ** Hessian has required structure
  Cycle:    232 Energy:      -648.720740  Gnorm:      0.000474  CPU:   11.343
  ** Hessian has required structure


  **** Optimisation achieved ****


  Final enthalpy =    -648.72074391 eV      
  Final Gnorm    =       0.00009581

  Components of enthalpy : 

--------------------------------------------------------------------------------
  Interatomic potentials     =         223.49045604 eV    
  Monopole - monopole (real) =        -513.88725351 eV    
  Monopole - monopole (recip)=        -487.89872379 eV    
  Monopole - monopole (total)=       -1001.78597730 eV    
  Pressure*volume            =         129.57477735 eV    
--------------------------------------------------------------------------------
  Total lattice enthalpy     =        -648.72074391 eV    
--------------------------------------------------------------------------------
  Total lattice enthalpy     =          -62591.6352 kJ/(mole unit cells)
--------------------------------------------------------------------------------

  Final fractional coordinates of atoms :

--------------------------------------------------------------------------------
   No.  Atomic        x           y          z          Radius
        Label       (Frac)      (Frac)     (Frac)       (Angs) 
--------------------------------------------------------------------------------
     1  Al    c     0.933209    0.176811    0.942797    0.000000
     2  Al    c     0.241839    0.060558    0.192799    0.000000
     3  Al    c     0.463666    0.560557    0.942797    0.000000
     4  Al    c     0.772294    0.676812    0.192795    0.000000
     5  Al    c     0.241840    0.060558    0.692800    0.000000
     6  Al    c     0.933211    0.176811    0.442796    0.000000
     7  Al    c     0.772295    0.676810    0.692795    0.000000
     8  Al    c     0.463666    0.560557    0.442796    0.000000
     9  Mg    c     0.129738    0.584928    0.942796    0.000000
    10  Mg    c     0.129739    0.584929    0.442797    0.000000
    11  Mg    c     0.575767    0.084927    0.192792    0.000000
    12  Mg    c     0.575768    0.084927    0.692792    0.000000
    13  O     c     0.613597    0.830065    0.942795    0.000000
    14  O     c     0.595027    0.447367    0.192798    0.000000
    15  O     c     0.091912    0.330067    0.692798    0.000000
    16  O     c     0.091914    0.330069    0.192802    0.000000
    17  O     c     0.613597    0.830064    0.442795    0.000000
    18  O     c     0.595027    0.447367    0.692799    0.000000
    19  O     c     0.110478    0.947369    0.442800    0.000000
    20  O     c     0.110479    0.947369    0.942800    0.000000
    21  O     c     0.869678    0.530372    0.442796    0.000000
    22  O     c     0.334555    0.711768    0.192797    0.000000
    23  O     c     0.370954    0.211765    0.442799    0.000000
    24  O     c     0.835828    0.030375    0.192796    0.000000
    25  O     c     0.835827    0.030374    0.692795    0.000000
    26  O     c     0.370953    0.211765    0.942799    0.000000
    27  O     c     0.334554    0.711767    0.692798    0.000000
    28  O     c     0.869679    0.530374    0.942797    0.000000
--------------------------------------------------------------------------------

  Final Cartesian lattice vectors (Angstroms) :

        7.824763    0.000039   -0.000538
       -0.000034    4.864331   -0.001252
        0.000354    0.001452    5.454311


  Final cell parameters and derivatives :

--------------------------------------------------------------------------------
       a            7.824763 Angstrom     dE/de1(xx)     0.002367 eV/strain
       b            4.864331 Angstrom     dE/de2(yy)     0.000956 eV/strain
       c            5.454311 Angstrom     dE/de3(zz)     0.000839 eV/strain
       alpha       89.999503 Degrees      dE/de4(yz)     0.000840 eV/strain
       beta        90.000217 Degrees      dE/de5(xz)    -0.000591 eV/strain
       gamma       90.000116 Degrees      dE/de6(xy)    -0.000681 eV/strain
--------------------------------------------------------------------------------

  Primitive cell volume =           207.603283 Angs**3

  Density of cell =      4.551925 g/cm**3

  Non-primitive cell volume =           207.603283 Angs**3


  Final internal derivatives :

--------------------------------------------------------------------------------
   No.  Atomic          a             b             c           Radius
        Label          (eV)          (eV)          (eV)        (eV/Angs)
--------------------------------------------------------------------------------
      1 Al    c       0.000000      0.000000      0.000000      0.000000
      2 Al    c      -0.000574     -0.000179     -0.000776      0.000000
      3 Al    c      -0.000090      0.000322     -0.000182      0.000000
      4 Al    c      -0.000150      0.000905     -0.000452      0.000000
      5 Al    c       0.000709      0.000115      0.000498      0.000000
      6 Al    c      -0.001656     -0.000675     -0.000460      0.000000
      7 Al    c       0.000228     -0.000455      0.000182      0.000000
      8 Al    c      -0.000086      0.000189     -0.000261      0.000000
      9 Mg    c      -0.001164     -0.000624     -0.000944      0.000000
     10 Mg    c      -0.000399     -0.000328     -0.000218      0.000000
     11 Mg    c       0.000610      0.000137     -0.000498      0.000000
     12 Mg    c       0.000627      0.000297     -0.000255      0.000000
     13 O     c      -0.000127     -0.000173     -0.000018      0.000000
     14 O     c       0.000048     -0.000591      0.000088      0.000000
     15 O     c       0.002899      0.000449     -0.000685      0.000000
     16 O     c       0.003588      0.001950      0.003342      0.000000
     17 O     c      -0.000099     -0.000049      0.000071      0.000000
     18 O     c      -0.000507     -0.000551     -0.000102      0.000000
     19 O     c      -0.000080      0.000189      0.000390      0.000000
     20 O     c       0.001828     -0.000669     -0.000343      0.000000
     21 O     c       0.000221     -0.000387     -0.000609      0.000000
     22 O     c       0.000531     -0.000133      0.000012      0.000000
     23 O     c      -0.000226      0.000070      0.000163      0.000000
     24 O     c      -0.000244      0.000098      0.000431      0.000000
     25 O     c      -0.002027     -0.000372     -0.001183      0.000000
     26 O     c      -0.000137     -0.000203      0.000139      0.000000
     27 O     c       0.000465      0.000012     -0.000190      0.000000
     28 O     c      -0.000227      0.000794      0.000057      0.000000
--------------------------------------------------------------------------------
  Maximum abs         0.003588      0.001950      0.003342      0.000000
--------------------------------------------------------------------------------


  Time to end of optimisation =      11.3988 seconds


  Peak dynamic memory used =       2.03 MB 


  Timing analysis for GULP :

--------------------------------------------------------------------------------
  Task / Subroutine                                          Time (Seconds)
--------------------------------------------------------------------------------
  Calculation of reciprocal space energy and derivatives          0.6434
  Calculation of real space energy and derivatives               10.6338
  Calculation and manipulation of Hessian matrix                  0.0593
  Global summation overhead                                       0.0015
--------------------------------------------------------------------------------
  Total CPU time                                                 11.3989
--------------------------------------------------------------------------------


  Job Finished at 15:44.27 11th June       2024                               

