********************************************************************************
*                       GENERAL UTILITY LATTICE PROGRAM                        *
*                                 Julian Gale                                  *
*                       Curtin Institute for Computation                       *
*                    School of Molecular and Life Sciences                     *
*                    Curtin University, Western Australia                      *
********************************************************************************
* Version = 6.0.0 * Last modified =  12th July 2021                            *
********************************************************************************
*  optimise     - perform optimisation run                                     *
*  conp         - constant pressure calculation                                *
*  nosymmetry   - turn off symmetry after initial structure generation         *
*  conjugate    - use conjugate gradients minimiser                            *
********************************************************************************

  Job Started  at 15:46.27 11th June       2024                               

  Number of CPUs =     1


  Total number of configurations input =      1

********************************************************************************
*  Input for Configuration =   1                                               *
********************************************************************************

  Formula = Al8Mg4O16                                                   

  Number of irreducible atoms/shells =      28


  Total number atoms/shells =      28

  Dimensionality = 3               :  Bulk   



  Cartesian lattice vectors (Angstroms) :

        9.587220    0.000000    0.000000
        0.000000    9.587220    0.000000
        0.000000    0.000000    4.755366

  Cell parameters (Angstroms/Degrees):

  a =       9.5872    alpha =  90.0000
  b =       9.5872    beta  =  90.0000
  c =       4.7554    gamma =  90.0000

  Initial cell volume =         437.088459 Angs**3

  Temperature of configuration =   0.00     K 

  Pressure of configuration =       100.000 GPa 

  Fractional coordinates of asymmetric unit :

--------------------------------------------------------------------------------
   No.  Atomic       x           y          z         Charge      Occupancy
        Label      (Frac)      (Frac)     (Frac)        (e)         (Frac)  
--------------------------------------------------------------------------------
      1 Al    c    0.093545    0.796410    0.839898     3.00000    1.000000    
      2 Al    c    0.906455 *  0.203590 *  0.839898 *   3.00000    1.000000    
      3 Al    c    0.796410 *  0.906455 *  0.160102 *   3.00000    1.000000    
      4 Al    c    0.203590 *  0.093545 *  0.160102 *   3.00000    1.000000    
      5 Al    c    0.593545 *  0.703590 *  0.839898 *   3.00000    1.000000    
      6 Al    c    0.406455 *  0.296410 *  0.839898 *   3.00000    1.000000    
      7 Al    c    0.296410 *  0.593545 *  0.160102 *   3.00000    1.000000    
      8 Al    c    0.703590 *  0.406455 *  0.160102 *   3.00000    1.000000    
      9 Mg    c    0.000000 *  0.000000 *  0.500000 *   2.00000    1.000000    
     10 Mg    c    0.500000 *  0.500000 *  0.500000 *   2.00000    1.000000    
     11 Mg    c    0.000000 *  0.500000 *  0.000000 *   2.00000    1.000000    
     12 Mg    c    0.500000 *  0.000000 *  0.000000 *   2.00000    1.000000    
     13 O     c    0.000000 *  0.500000 *  0.703427 *  -2.00000    1.000000    
     14 O     c    0.500000 *  0.000000 *  0.296573 *  -2.00000    1.000000    
     15 O     c    0.500000 *  0.000000 *  0.703427 *  -2.00000    1.000000    
     16 O     c    0.000000 *  0.500000 *  0.296573 *  -2.00000    1.000000    
     17 O     c    0.157184 *  0.657184 *  0.000000 *  -2.00000    1.000000    
     18 O     c    0.842816 *  0.342816 *  0.000000 *  -2.00000    1.000000    
     19 O     c    0.657184 *  0.842816 *  0.000000 *  -2.00000    1.000000    
     20 O     c    0.342816 *  0.157184 *  0.000000 *  -2.00000    1.000000    
     21 O     c    0.590041 *  0.160165 *  0.528367 *  -2.00000    1.000000    
     22 O     c    0.409959 *  0.839835 *  0.528367 *  -2.00000    1.000000    
     23 O     c    0.160165 *  0.409959 *  0.471633 *  -2.00000    1.000000    
     24 O     c    0.839835 *  0.590041 *  0.471633 *  -2.00000    1.000000    
     25 O     c    0.090041 *  0.339835 *  0.528367 *  -2.00000    1.000000    
     26 O     c    0.909959 *  0.660165 *  0.528367 *  -2.00000    1.000000    
     27 O     c    0.660165 *  0.090041 *  0.471633 *  -2.00000    1.000000    
     28 O     c    0.339835 *  0.909959 *  0.471633 *  -2.00000    1.000000    
--------------------------------------------------------------------------------



********************************************************************************
*  General input information                                                   *
********************************************************************************

  Species output for all configurations : 

--------------------------------------------------------------------------------
  Species    Type    Atomic    Atomic    Charge       Radii (Angs)     Library
                     Number     Mass       (e)     Cova   Ionic  VDW   Symbol
--------------------------------------------------------------------------------
    Mg       Core       12      24.31   2.000000   1.100  0.000  1.640          
    Al       Core       13      26.98   3.000000   1.350  0.000  2.050          
    O        Core        8      16.00  -2.000000   0.730  0.000  1.360          
--------------------------------------------------------------------------------


  Lattice summation method               =    Ewald          (3-D)
                                         =    Parry          (2-D)
                                         =    Saunders et al (1-D)
  Accuracy factor for lattice sums       =   12.000


  Analytic derivatives to be used

  Time limit = Infinity

  Maximum range for interatomic potentials =    100000.000000 Angstroms

  General interatomic potentials :

--------------------------------------------------------------------------------
Atom  Types   Potential      Parameter       Value         Units   Cutoffs(Ang)
  1     2                                                            Min /  Max 
--------------------------------------------------------------------------------
O    c Mg   c Lennard       Lennard-Jones A  1.5000000    eV*Ang^m  0.000  6.000
                            Lennard-Jones B  0.0000000    eV*Ang^n  
                            Exponent m        12          None
                            Exponent n         6          None
--------------------------------------------------------------------------------
O    c Al   c Lennard       Lennard-Jones A  1.5000000    eV*Ang^m  0.000  6.000
                            Lennard-Jones B  0.0000000    eV*Ang^n  
                            Exponent m        12          None
                            Exponent n         6          None
--------------------------------------------------------------------------------
O    c O    c Lennard       Lennard-Jones A  1.5000000    eV*Ang^m  0.000  6.000
                            Lennard-Jones B  0.0000000    eV*Ang^n  
                            Exponent m        12          None
                            Exponent n         6          None
--------------------------------------------------------------------------------
Mg   c Mg   c Lennard       Lennard-Jones A  1.5000000    eV*Ang^m  0.000  6.000
                            Lennard-Jones B  0.0000000    eV*Ang^n  
                            Exponent m        12          None
                            Exponent n         6          None
--------------------------------------------------------------------------------
Mg   c Al   c Lennard       Lennard-Jones A  1.5000000    eV*Ang^m  0.000  6.000
                            Lennard-Jones B  0.0000000    eV*Ang^n  
                            Exponent m        12          None
                            Exponent n         6          None
--------------------------------------------------------------------------------
Al   c Al   c Lennard       Lennard-Jones A  1.5000000    eV*Ang^m  0.000  6.000
                            Lennard-Jones B  0.0000000    eV*Ang^n  
                            Exponent m        12          None
                            Exponent n         6          None
--------------------------------------------------------------------------------
O    c Mg   c Buckingham    Buckingham A     1428.5000    eV        0.000  7.000
                            Buckingham rho  0.29450000    Ang       
                            Buckingham C     0.0000000    eV*Ang^6  
--------------------------------------------------------------------------------
O    c Al   c Buckingham    Buckingham A     1114.9000    eV        0.000  7.000
                            Buckingham rho  0.31180000    Ang       
                            Buckingham C     0.0000000    eV*Ang^6  
--------------------------------------------------------------------------------
O    c O    c Buckingham    Buckingham A     2023.8000    eV        0.000  7.000
                            Buckingham rho  0.26740000    Ang       
                            Buckingham C     0.0000000    eV*Ang^6  
--------------------------------------------------------------------------------

********************************************************************************
*  Output for configuration   1                                                *
********************************************************************************


  Components of enthalpy : 

--------------------------------------------------------------------------------
  Interatomic potentials     =         330.82826343 eV    
  Monopole - monopole (real) =           6.85083573 eV    
  Monopole - monopole (recip)=        -323.92328611 eV    
  Monopole - monopole (total)=        -317.07245038 eV    
  Pressure*volume            =         272.80705236 eV    
--------------------------------------------------------------------------------
  Total lattice enthalpy     =         286.56286541 eV    
--------------------------------------------------------------------------------
  Total lattice enthalpy     =           27648.9360 kJ/(mole unit cells)
--------------------------------------------------------------------------------


  Number of variables =       87

  Maximum number of calculations  =           850
  Maximum Hessian update interval =            10
  Maximum step size               =   1.000000000
  Maximum parameter tolerance     =   0.000010000
  Maximum function  tolerance     =   0.000010000
  Maximum gradient  tolerance     =   0.001000000
  Maximum gradient  component     =   0.010000000

  Cell parameters to be optimised using strains

  Conjugate gradient optimiser to be used

  Lower half triangular hessian to be used

  Minimiser to switch to RFO
  When gradient norm is less than     0.010000

  Start of bulk optimisation :

  Cycle:      0 Energy:       286.562865  Gnorm:     86.994174  CPU:    0.033
  Cycle:      1 Energy:      -392.090883  Gnorm:      4.940721  CPU:    0.101
  Cycle:      2 Energy:      -426.340524  Gnorm:      4.863900  CPU:    0.144
  Cycle:      3 Energy:      -446.699723  Gnorm:      4.768583  CPU:    0.180
  Cycle:      4 Energy:      -470.890679  Gnorm:      3.612953  CPU:    0.229
  Cycle:      5 Energy:      -481.595971  Gnorm:      3.994053  CPU:    0.275
  Cycle:      6 Energy:      -504.697789  Gnorm:      3.795290  CPU:    0.324
  Cycle:      7 Energy:      -534.852894  Gnorm:      4.166746  CPU:    0.373
  Cycle:      8 Energy:      -547.227822  Gnorm:      3.464847  CPU:    0.419
  Cycle:      9 Energy:      -560.454628  Gnorm:      2.475198  CPU:    0.461
  Cycle:     10 Energy:      -566.595599  Gnorm:      2.080429  CPU:    0.504
  Cycle:     11 Energy:      -576.519989  Gnorm:      2.543248  CPU:    0.550
  Cycle:     12 Energy:      -584.758818  Gnorm:      2.114091  CPU:    0.585
  Cycle:     13 Energy:      -591.183054  Gnorm:      1.913984  CPU:    0.628
  Cycle:     14 Energy:      -598.496946  Gnorm:      2.175206  CPU:    0.674
  Cycle:     15 Energy:      -607.699707  Gnorm:      1.874490  CPU:    0.727
  Cycle:     16 Energy:      -612.618514  Gnorm:      1.457974  CPU:    0.791
  Cycle:     17 Energy:      -616.346947  Gnorm:      1.226149  CPU:    0.850
  Cycle:     18 Energy:      -619.114658  Gnorm:      1.193692  CPU:    0.910
  Cycle:     19 Energy:      -621.325461  Gnorm:      1.066567  CPU:    0.966
  Cycle:     20 Energy:      -622.893943  Gnorm:      0.963746  CPU:    1.015
  Cycle:     21 Energy:      -624.958499  Gnorm:      0.937806  CPU:    1.106
  Cycle:     22 Energy:      -627.326432  Gnorm:      1.275169  CPU:    1.196
  Cycle:     23 Energy:      -629.535080  Gnorm:      1.148177  CPU:    1.269
  Cycle:     24 Energy:      -631.374422  Gnorm:      0.855143  CPU:    1.359
  Cycle:     25 Energy:      -632.743802  Gnorm:      0.769382  CPU:    1.445
  Cycle:     26 Energy:      -633.953127  Gnorm:      0.730504  CPU:    1.535
  Cycle:     27 Energy:      -635.409143  Gnorm:      0.737555  CPU:    1.621
  Cycle:     28 Energy:      -636.491277  Gnorm:      0.661368  CPU:    1.696
  Cycle:     29 Energy:      -637.621436  Gnorm:      0.658161  CPU:    1.782
  Cycle:     30 Energy:      -638.230312  Gnorm:      0.520794  CPU:    1.856
  Cycle:     31 Energy:      -638.913104  Gnorm:      0.617653  CPU:    1.926
  Cycle:     32 Energy:      -639.609050  Gnorm:      0.540752  CPU:    1.975
  Cycle:     33 Energy:      -640.178160  Gnorm:      0.580094  CPU:    2.038
  Cycle:     34 Energy:      -640.980310  Gnorm:      0.633514  CPU:    2.098
  Cycle:     35 Energy:      -642.142929  Gnorm:      0.688075  CPU:    2.162
  Cycle:     36 Energy:      -643.095713  Gnorm:      0.599163  CPU:    2.212
  Cycle:     37 Energy:      -643.909757  Gnorm:      0.514398  CPU:    2.278
  Cycle:     38 Energy:      -644.532674  Gnorm:      0.564344  CPU:    2.339
  Cycle:     39 Energy:      -645.122582  Gnorm:      0.434908  CPU:    2.393
  Cycle:     40 Energy:      -645.441440  Gnorm:      0.407098  CPU:    2.446
  Cycle:     41 Energy:      -645.740704  Gnorm:      0.263920  CPU:    2.510
  Cycle:     42 Energy:      -645.921577  Gnorm:      0.285410  CPU:    2.571
  Cycle:     43 Energy:      -646.155181  Gnorm:      0.292709  CPU:    2.638
  Cycle:     44 Energy:      -646.385619  Gnorm:      0.279432  CPU:    2.699
  Cycle:     45 Energy:      -646.621606  Gnorm:      0.351422  CPU:    2.764
  Cycle:     46 Energy:      -646.836964  Gnorm:      0.311103  CPU:    2.814
  Cycle:     47 Energy:      -647.119731  Gnorm:      0.319444  CPU:    2.879
  Cycle:     48 Energy:      -647.440956  Gnorm:      0.366561  CPU:    2.939
  Cycle:     49 Energy:      -647.724235  Gnorm:      0.328748  CPU:    2.989
  Cycle:     50 Energy:      -647.862875  Gnorm:      0.263915  CPU:    3.038
  Cycle:     51 Energy:      -648.072022  Gnorm:      0.225565  CPU:    3.098
  Cycle:     52 Energy:      -648.199427  Gnorm:      0.207398  CPU:    3.147
  Cycle:     53 Energy:      -648.318308  Gnorm:      0.230953  CPU:    3.207
  Cycle:     54 Energy:      -648.426789  Gnorm:      0.218503  CPU:    3.257
  Cycle:     55 Energy:      -648.545989  Gnorm:      0.200443  CPU:    3.317
  Cycle:     56 Energy:      -648.659296  Gnorm:      0.187004  CPU:    3.377
  Cycle:     57 Energy:      -648.745924  Gnorm:      0.189232  CPU:    3.427
  Cycle:     58 Energy:      -648.814689  Gnorm:      0.159222  CPU:    3.476
  Cycle:     59 Energy:      -648.887330  Gnorm:      0.142428  CPU:    3.537
  Cycle:     60 Energy:      -648.911102  Gnorm:      0.101421  CPU:    3.586
  Cycle:     61 Energy:      -648.938713  Gnorm:      0.094809  CPU:    3.647
  Cycle:     62 Energy:      -648.959919  Gnorm:      0.098918  CPU:    3.700
  Cycle:     63 Energy:      -648.984440  Gnorm:      0.096868  CPU:    3.750
  Cycle:     64 Energy:      -649.018205  Gnorm:      0.111096  CPU:    3.815
  Cycle:     65 Energy:      -649.054208  Gnorm:      0.125709  CPU:    3.865
  Cycle:     66 Energy:      -649.098315  Gnorm:      0.147960  CPU:    3.929
  Cycle:     67 Energy:      -649.151563  Gnorm:      0.151640  CPU:    3.978
  Cycle:     68 Energy:      -649.217924  Gnorm:      0.155271  CPU:    4.041
  Cycle:     69 Energy:      -649.300474  Gnorm:      0.180845  CPU:    4.102
  Cycle:     70 Energy:      -649.345544  Gnorm:      0.153054  CPU:    4.154
  Cycle:     71 Energy:      -649.413512  Gnorm:      0.144223  CPU:    4.215
  Cycle:     72 Energy:      -649.481006  Gnorm:      0.149434  CPU:    4.283
  Cycle:     73 Energy:      -649.555881  Gnorm:      0.194881  CPU:    4.344
  Cycle:     74 Energy:      -649.647129  Gnorm:      0.206622  CPU:    4.397
  Cycle:     75 Energy:      -649.792113  Gnorm:      0.251902  CPU:    4.457
  Cycle:     76 Energy:      -649.934479  Gnorm:      0.259831  CPU:    4.510
  Cycle:     77 Energy:      -650.060372  Gnorm:      0.209534  CPU:    4.559
  Cycle:     78 Energy:      -650.172192  Gnorm:      0.220553  CPU:    4.623
  Cycle:     79 Energy:      -650.263403  Gnorm:      0.186232  CPU:    4.672
  Cycle:     80 Energy:      -650.313588  Gnorm:      0.158988  CPU:    4.725
  Cycle:     81 Energy:      -650.366782  Gnorm:      0.130239  CPU:    4.786
  Cycle:     82 Energy:      -650.425136  Gnorm:      0.127510  CPU:    4.847
  Cycle:     83 Energy:      -650.456782  Gnorm:      0.089781  CPU:    4.896
  Cycle:     84 Energy:      -650.469273  Gnorm:      0.064567  CPU:    4.949
  Cycle:     85 Energy:      -650.484281  Gnorm:      0.067786  CPU:    4.999
  Cycle:     86 Energy:      -650.494791  Gnorm:      0.075974  CPU:    5.049
  Cycle:     87 Energy:      -650.512667  Gnorm:      0.074490  CPU:    5.112
  Cycle:     88 Energy:      -650.526011  Gnorm:      0.072762  CPU:    5.165
  Cycle:     89 Energy:      -650.536641  Gnorm:      0.065172  CPU:    5.214
  Cycle:     90 Energy:      -650.543323  Gnorm:      0.053113  CPU:    5.263
  Cycle:     91 Energy:      -650.549050  Gnorm:      0.045080  CPU:    5.317
  Cycle:     92 Energy:      -650.554516  Gnorm:      0.042047  CPU:    5.368
  Cycle:     93 Energy:      -650.558063  Gnorm:      0.041443  CPU:    5.419
  Cycle:     94 Energy:      -650.563698  Gnorm:      0.039231  CPU:    5.483
  Cycle:     95 Energy:      -650.568624  Gnorm:      0.049811  CPU:    5.533
  Cycle:     96 Energy:      -650.575966  Gnorm:      0.051714  CPU:    5.597
  Cycle:     97 Energy:      -650.583231  Gnorm:      0.042517  CPU:    5.652
  Cycle:     98 Energy:      -650.588024  Gnorm:      0.043747  CPU:    5.716
  Cycle:     99 Energy:      -650.592368  Gnorm:      0.044876  CPU:    5.765
  Cycle:    100 Energy:      -650.595396  Gnorm:      0.032529  CPU:    5.818
  Cycle:    101 Energy:      -650.597375  Gnorm:      0.026947  CPU:    5.869
  Cycle:    102 Energy:      -650.599713  Gnorm:      0.027031  CPU:    5.933
  Cycle:    103 Energy:      -650.602301  Gnorm:      0.027007  CPU:    5.983
  Cycle:    104 Energy:      -650.603664  Gnorm:      0.022582  CPU:    6.036
  Cycle:    105 Energy:      -650.605207  Gnorm:      0.019582  CPU:    6.086
  Cycle:    106 Energy:      -650.605964  Gnorm:      0.019941  CPU:    6.135
  Cycle:    107 Energy:      -650.607040  Gnorm:      0.018170  CPU:    6.188
  Cycle:    108 Energy:      -650.607772  Gnorm:      0.016376  CPU:    6.238
  Cycle:    109 Energy:      -650.608389  Gnorm:      0.018326  CPU:    6.290
  Cycle:    110 Energy:      -650.608902  Gnorm:      0.014136  CPU:    6.342
  Cycle:    111 Energy:      -650.609375  Gnorm:      0.014590  CPU:    6.392
  Cycle:    112 Energy:      -650.610004  Gnorm:      0.014465  CPU:    6.443
  Cycle:    113 Energy:      -650.610448  Gnorm:      0.014593  CPU:    6.495
  Cycle:    114 Energy:      -650.611052  Gnorm:      0.014621  CPU:    6.545
  Cycle:    115 Energy:      -650.611638  Gnorm:      0.015908  CPU:    6.597
  Cycle:    116 Energy:      -650.612248  Gnorm:      0.013318  CPU:    6.649
  Cycle:    117 Energy:      -650.612734  Gnorm:      0.011838  CPU:    6.710
  Cycle:    118 Energy:      -650.613051  Gnorm:      0.012760  CPU:    6.764
  Cycle:    119 Energy:      -650.613442  Gnorm:      0.012477  CPU:    6.813
  Cycle:    120 Energy:      -650.613767  Gnorm:      0.010322  CPU:    6.862
  Cycle:    121 Energy:      -650.613970  Gnorm:      0.009413  CPU:    6.915
  ** Hessian has required structure
  Cycle:    122 Energy:      -650.615672  Gnorm:      0.004275  CPU:    7.116
  ** Hessian has required structure
  Cycle:    123 Energy:      -650.616114  Gnorm:      0.000172  CPU:    7.184
  ** Hessian has required structure


  **** Optimisation achieved ****


  Final enthalpy =    -650.61611401 eV      
  Final Gnorm    =       0.00002750

  Components of enthalpy : 

--------------------------------------------------------------------------------
  Interatomic potentials     =         227.79372139 eV    
  Monopole - monopole (real) =        -521.25855712 eV    
  Monopole - monopole (recip)=        -487.25618509 eV    
  Monopole - monopole (total)=       -1008.51474222 eV    
  Pressure*volume            =         130.10490682 eV    
--------------------------------------------------------------------------------
  Total lattice enthalpy     =        -650.61611401 eV    
--------------------------------------------------------------------------------
  Total lattice enthalpy     =          -62774.5094 kJ/(mole unit cells)
--------------------------------------------------------------------------------

  Final fractional coordinates of atoms :

--------------------------------------------------------------------------------
   No.  Atomic        x           y          z          Radius
        Label       (Frac)      (Frac)     (Frac)       (Angs) 
--------------------------------------------------------------------------------
     1  Al    c     0.093545    0.796410    0.839898    0.000000
     2  Al    c     0.091002    0.299665    0.849183    0.000000
     3  Al    c     0.743554    0.892772    0.344264    0.000000
     4  Al    c     0.440010    0.200363    0.345638    0.000000
     5  Al    c     0.393561    0.989134    0.848631    0.000000
     6  Al    c     0.396103    0.485879    0.839346    0.000000
     7  Al    c     0.047097    0.585180    0.342892    0.000000
     8  Al    c     0.743554    0.392772    0.344264    0.000000
     9  Mg    c     0.052795    0.082182    0.343392    0.000000
    10  Mg    c     0.434312    0.703361    0.345137    0.000000
    11  Mg    c     0.731530    0.648707    0.846954    0.000000
    12  Mg    c     0.755568    0.136846    0.841574    0.000000
    13  O     c     0.132387    0.525010    0.001785    0.000000
    14  O     c     0.602310    0.993169    0.038225    0.000000
    15  O     c     0.354722    0.260532    0.686746    0.000000
    16  O     c     0.752823    0.641601    0.244635    0.000000
    17  O     c     0.365476    0.753342    0.958692    0.000000
    18  O     c     0.884626    0.299520    0.040851    0.000000
    19  O     c     0.983595    0.859217    0.167560    0.000000
    20  O     c     0.258533    0.150804    0.144067    0.000000
    21  O     c     0.503948    0.397210    0.163056    0.000000
    22  O     c     0.503514    0.926325    0.520970    0.000000
    23  O     c     0.228575    0.634737    0.544463    0.000000
    24  O     c     0.602481    0.486021    0.647678    0.000000
    25  O     c     0.983161    0.388332    0.525472    0.000000
    26  O     c     0.884799    0.792372    0.650301    0.000000
    27  O     c     0.734284    0.143942    0.443893    0.000000
    28  O     c     0.121634    0.032200    0.729836    0.000000
--------------------------------------------------------------------------------

  Final Cartesian lattice vectors (Angstroms) :

        6.850906    0.864567    0.007122
        0.864152    6.656058    0.024558
        0.002986    0.012656    4.647520


  Final cell parameters and derivatives :

--------------------------------------------------------------------------------
       a            6.905247 Angstrom     dE/de1(xx)     0.000034 eV/strain
       b            6.711965 Angstrom     dE/de2(yy)    -0.000004 eV/strain
       c            4.647538 Angstrom     dE/de3(zz)    -0.000100 eV/strain
       alpha       89.630898 Degrees      dE/de4(yz)    -0.000815 eV/strain
       beta        89.884850 Degrees      dE/de5(xz)     0.001221 eV/strain
       gamma       75.410025 Degrees      dE/de6(xy)    -0.000161 eV/strain
--------------------------------------------------------------------------------

  Primitive cell volume =           208.452651 Angs**3

  Density of cell =      4.533378 g/cm**3

  Non-primitive cell volume =           208.452651 Angs**3


  Final internal derivatives :

--------------------------------------------------------------------------------
   No.  Atomic          a             b             c           Radius
        Label          (eV)          (eV)          (eV)        (eV/Angs)
--------------------------------------------------------------------------------
      1 Al    c       0.000000      0.000000      0.000000      0.000000
      2 Al    c      -0.000504     -0.000002      0.000128      0.000000
      3 Al    c      -0.000261      0.000317     -0.000315      0.000000
      4 Al    c       0.000043     -0.000160     -0.000091      0.000000
      5 Al    c       0.000472     -0.000143      0.000022      0.000000
      6 Al    c      -0.000039      0.000204     -0.000149      0.000000
      7 Al    c      -0.000277     -0.000248     -0.000040      0.000000
      8 Al    c       0.000226     -0.000146     -0.000078      0.000000
      9 Mg    c       0.000017      0.000127     -0.000169      0.000000
     10 Mg    c      -0.000015      0.000061      0.000034      0.000000
     11 Mg    c       0.000170      0.000144     -0.000043      0.000000
     12 Mg    c      -0.000304      0.000495      0.000455      0.000000
     13 O     c       0.000005     -0.000227      0.000096      0.000000
     14 O     c      -0.000010      0.000456     -0.000301      0.000000
     15 O     c       0.000016      0.000099      0.000070      0.000000
     16 O     c       0.000030     -0.000135     -0.000075      0.000000
     17 O     c       0.000051      0.000071      0.000017      0.000000
     18 O     c      -0.000239     -0.000419     -0.000472      0.000000
     19 O     c       0.000311     -0.000145      0.000105      0.000000
     20 O     c       0.000085      0.000096     -0.000003      0.000000
     21 O     c      -0.000387     -0.000110     -0.000071      0.000000
     22 O     c      -0.000065     -0.000005     -0.000032      0.000000
     23 O     c      -0.000100     -0.000034      0.000100      0.000000
     24 O     c      -0.000258      0.000172     -0.000080      0.000000
     25 O     c       0.000211      0.000136      0.000008      0.000000
     26 O     c       0.000120     -0.000447     -0.000115      0.000000
     27 O     c       0.000188     -0.000097      0.000351      0.000000
     28 O     c       0.000120     -0.000081     -0.000030      0.000000
--------------------------------------------------------------------------------
  Maximum abs         0.000504      0.000495      0.000472      0.000000
--------------------------------------------------------------------------------


  Time to end of optimisation =       7.2518 seconds


  Peak dynamic memory used =       2.03 MB 


  Timing analysis for GULP :

--------------------------------------------------------------------------------
  Task / Subroutine                                          Time (Seconds)
--------------------------------------------------------------------------------
  Calculation of reciprocal space energy and derivatives          0.3695
  Calculation of real space energy and derivatives                6.7846
  Calculation and manipulation of Hessian matrix                  0.0555
  Global summation overhead                                       0.0008
--------------------------------------------------------------------------------
  Total CPU time                                                  7.2519
--------------------------------------------------------------------------------


  Job Finished at 15:46.34 11th June       2024                               

