********************************************************************************
*                       GENERAL UTILITY LATTICE PROGRAM                        *
*                                 Julian Gale                                  *
*                       Curtin Institute for Computation                       *
*                    School of Molecular and Life Sciences                     *
*                    Curtin University, Western Australia                      *
********************************************************************************
* Version = 6.0.0 * Last modified =  12th July 2021                            *
********************************************************************************
*  optimise     - perform optimisation run                                     *
*  conp         - constant pressure calculation                                *
*  nosymmetry   - turn off symmetry after initial structure generation         *
*  conjugate    - use conjugate gradients minimiser                            *
********************************************************************************

  Job Started  at 15:50.02 11th June       2024                               

  Number of CPUs =     1


  Total number of configurations input =      1

********************************************************************************
*  Input for Configuration =   1                                               *
********************************************************************************

  Formula = Al8Mg4O16                                                   

  Number of irreducible atoms/shells =      28


  Total number atoms/shells =      28

  Dimensionality = 3               :  Bulk   



  Cartesian lattice vectors (Angstroms) :

        7.607224   -4.392033    0.000000
        0.000000    8.784066    0.000000
        0.000000    0.000000    6.119724

  Cell parameters (Angstroms/Degrees):

  a =       8.7841    alpha =  90.0000
  b =       8.7841    beta  =  90.0000
  c =       6.1197    gamma = 120.0000

  Initial cell volume =         408.934416 Angs**3

  Temperature of configuration =   0.00     K 

  Pressure of configuration =       100.000 GPa 

  Fractional coordinates of asymmetric unit :

--------------------------------------------------------------------------------
   No.  Atomic       x           y          z         Charge      Occupancy
        Label      (Frac)      (Frac)     (Frac)        (e)         (Frac)  
--------------------------------------------------------------------------------
      1 Al    c    0.881495    0.118505    0.500000     3.00000    1.000000    
      2 Al    c    0.881495 *  0.762990 *  0.500000 *   3.00000    1.000000    
      3 Al    c    0.237010 *  0.118505 *  0.500000 *   3.00000    1.000000    
      4 Al    c    0.118505 *  0.881495 *  0.500000 *   3.00000    1.000000    
      5 Al    c    0.118505 *  0.237010 *  0.500000 *   3.00000    1.000000    
      6 Al    c    0.762990 *  0.881495 *  0.500000 *   3.00000    1.000000    
      7 Al    c    0.333333 *  0.666667 *  0.000000 *   3.00000    1.000000    
      8 Al    c    0.666667 *  0.333333 *  0.000000 *   3.00000    1.000000    
      9 Mg    c    0.000000 *  0.000000 *  0.000000 *   2.00000    1.000000    
     10 Mg    c    0.500000 *  0.000000 *  0.000000 *   2.00000    1.000000    
     11 Mg    c    0.000000 *  0.500000 *  0.000000 *   2.00000    1.000000    
     12 Mg    c    0.500000 *  0.500000 *  0.000000 *   2.00000    1.000000    
     13 O     c    0.619579 *  0.337854 *  0.204311 *  -2.00000    1.000000    
     14 O     c    0.662146 *  0.281725 *  0.204311 *  -2.00000    1.000000    
     15 O     c    0.718275 *  0.380421 *  0.204311 *  -2.00000    1.000000    
     16 O     c    0.662146 *  0.380421 *  0.795689 *  -2.00000    1.000000    
     17 O     c    0.718275 *  0.337854 *  0.795689 *  -2.00000    1.000000    
     18 O     c    0.619579 *  0.281725 *  0.795689 *  -2.00000    1.000000    
     19 O     c    0.380421 *  0.662146 *  0.795689 *  -2.00000    1.000000    
     20 O     c    0.337854 *  0.718275 *  0.795689 *  -2.00000    1.000000    
     21 O     c    0.281725 *  0.619579 *  0.795689 *  -2.00000    1.000000    
     22 O     c    0.337854 *  0.619579 *  0.204311 *  -2.00000    1.000000    
     23 O     c    0.281725 *  0.662146 *  0.204311 *  -2.00000    1.000000    
     24 O     c    0.380421 *  0.718275 *  0.204311 *  -2.00000    1.000000    
     25 O     c    0.333333 *  0.666667 *  0.500000 *  -2.00000    1.000000    
     26 O     c    0.666667 *  0.333333 *  0.500000 *  -2.00000    1.000000    
     27 O     c    0.000000 *  0.000000 *  0.268160 *  -2.00000    1.000000    
     28 O     c    0.000000 *  0.000000 *  0.731840 *  -2.00000    1.000000    
--------------------------------------------------------------------------------



********************************************************************************
*  General input information                                                   *
********************************************************************************

  Species output for all configurations : 

--------------------------------------------------------------------------------
  Species    Type    Atomic    Atomic    Charge       Radii (Angs)     Library
                     Number     Mass       (e)     Cova   Ionic  VDW   Symbol
--------------------------------------------------------------------------------
    Mg       Core       12      24.31   2.000000   1.100  0.000  1.640          
    Al       Core       13      26.98   3.000000   1.350  0.000  2.050          
    O        Core        8      16.00  -2.000000   0.730  0.000  1.360          
--------------------------------------------------------------------------------


  Lattice summation method               =    Ewald          (3-D)
                                         =    Parry          (2-D)
                                         =    Saunders et al (1-D)
  Accuracy factor for lattice sums       =   12.000


  Analytic derivatives to be used

  Time limit = Infinity

  Maximum range for interatomic potentials =    100000.000000 Angstroms

  General interatomic potentials :

--------------------------------------------------------------------------------
Atom  Types   Potential      Parameter       Value         Units   Cutoffs(Ang)
  1     2                                                            Min /  Max 
--------------------------------------------------------------------------------
O    c Mg   c Lennard       Lennard-Jones A  1.5000000    eV*Ang^m  0.000  6.000
                            Lennard-Jones B  0.0000000    eV*Ang^n  
                            Exponent m        12          None
                            Exponent n         6          None
--------------------------------------------------------------------------------
O    c Al   c Lennard       Lennard-Jones A  1.5000000    eV*Ang^m  0.000  6.000
                            Lennard-Jones B  0.0000000    eV*Ang^n  
                            Exponent m        12          None
                            Exponent n         6          None
--------------------------------------------------------------------------------
O    c O    c Lennard       Lennard-Jones A  1.5000000    eV*Ang^m  0.000  6.000
                            Lennard-Jones B  0.0000000    eV*Ang^n  
                            Exponent m        12          None
                            Exponent n         6          None
--------------------------------------------------------------------------------
Mg   c Mg   c Lennard       Lennard-Jones A  1.5000000    eV*Ang^m  0.000  6.000
                            Lennard-Jones B  0.0000000    eV*Ang^n  
                            Exponent m        12          None
                            Exponent n         6          None
--------------------------------------------------------------------------------
Mg   c Al   c Lennard       Lennard-Jones A  1.5000000    eV*Ang^m  0.000  6.000
                            Lennard-Jones B  0.0000000    eV*Ang^n  
                            Exponent m        12          None
                            Exponent n         6          None
--------------------------------------------------------------------------------
Al   c Al   c Lennard       Lennard-Jones A  1.5000000    eV*Ang^m  0.000  6.000
                            Lennard-Jones B  0.0000000    eV*Ang^n  
                            Exponent m        12          None
                            Exponent n         6          None
--------------------------------------------------------------------------------
O    c Mg   c Buckingham    Buckingham A     1428.5000    eV        0.000  7.000
                            Buckingham rho  0.29450000    Ang       
                            Buckingham C     0.0000000    eV*Ang^6  
--------------------------------------------------------------------------------
O    c Al   c Buckingham    Buckingham A     1114.9000    eV        0.000  7.000
                            Buckingham rho  0.31180000    Ang       
                            Buckingham C     0.0000000    eV*Ang^6  
--------------------------------------------------------------------------------
O    c O    c Buckingham    Buckingham A     2023.8000    eV        0.000  7.000
                            Buckingham rho  0.26740000    Ang       
                            Buckingham C     0.0000000    eV*Ang^6  
--------------------------------------------------------------------------------

********************************************************************************
*  Output for configuration   1                                                *
********************************************************************************


  Components of enthalpy : 

--------------------------------------------------------------------------------
  Interatomic potentials     =        2235.96949145 eV    
  Monopole - monopole (real) =         397.70652380 eV    
  Monopole - monopole (recip)=        -294.62546549 eV    
  Monopole - monopole (total)=         103.08105831 eV    
  Pressure*volume            =         255.23481633 eV    
--------------------------------------------------------------------------------
  Total lattice enthalpy     =        2594.28536609 eV    
--------------------------------------------------------------------------------
  Total lattice enthalpy     =          250308.8805 kJ/(mole unit cells)
--------------------------------------------------------------------------------


  Number of variables =       87

  Maximum number of calculations  =           850
  Maximum Hessian update interval =            10
  Maximum step size               =   1.000000000
  Maximum parameter tolerance     =   0.000010000
  Maximum function  tolerance     =   0.000010000
  Maximum gradient  tolerance     =   0.001000000
  Maximum gradient  component     =   0.010000000

  Cell parameters to be optimised using strains

  Conjugate gradient optimiser to be used

  Lower half triangular hessian to be used

  Minimiser to switch to RFO
  When gradient norm is less than     0.010000

  Start of bulk optimisation :

  Cycle:      0 Energy:      2594.285366  Gnorm:    779.524361  CPU:    0.038
  Cycle:      1 Energy:       -74.276294  Gnorm:     17.063735  CPU:    0.148
  Cycle:      2 Energy:      -403.183494  Gnorm:      7.880264  CPU:    0.256
  Cycle:      3 Energy:      -482.871508  Gnorm:     13.467114  CPU:    0.322
  Cycle:      4 Energy:      -508.478032  Gnorm:      5.775809  CPU:    0.385
  Cycle:      5 Energy:      -527.759335  Gnorm:      3.591266  CPU:    0.451
  Cycle:      6 Energy:      -539.551073  Gnorm:      1.978739  CPU:    0.513
  Cycle:      7 Energy:      -546.220862  Gnorm:      1.943209  CPU:    0.579
  Cycle:      8 Energy:      -551.645029  Gnorm:      2.267628  CPU:    0.642
  Cycle:      9 Energy:      -558.833940  Gnorm:      2.211335  CPU:    0.708
  Cycle:     10 Energy:      -563.862712  Gnorm:      1.938031  CPU:    0.770
  Cycle:     11 Energy:      -570.235953  Gnorm:      1.774743  CPU:    0.836
  Cycle:     12 Energy:      -576.758431  Gnorm:      2.268821  CPU:    0.897
  Cycle:     13 Energy:      -583.078688  Gnorm:      1.962658  CPU:    0.951
  Cycle:     14 Energy:      -588.932901  Gnorm:      2.051549  CPU:    1.012
  Cycle:     15 Energy:      -597.780760  Gnorm:      2.215843  CPU:    1.076
  Cycle:     16 Energy:      -604.759099  Gnorm:      1.516192  CPU:    1.125
  Cycle:     17 Energy:      -608.157463  Gnorm:      1.202445  CPU:    1.189
  Cycle:     18 Energy:      -612.031614  Gnorm:      1.263483  CPU:    1.249
  Cycle:     19 Energy:      -615.563591  Gnorm:      1.399729  CPU:    1.302
  Cycle:     20 Energy:      -617.762355  Gnorm:      0.978495  CPU:    1.351
  Cycle:     21 Energy:      -619.825498  Gnorm:      0.940782  CPU:    1.415
  Cycle:     22 Energy:      -623.434943  Gnorm:      1.319688  CPU:    1.481
  Cycle:     23 Energy:      -626.432701  Gnorm:      1.336113  CPU:    1.556
  Cycle:     24 Energy:      -629.888989  Gnorm:      1.152839  CPU:    1.649
  Cycle:     25 Energy:      -632.108896  Gnorm:      1.120505  CPU:    1.721
  Cycle:     26 Energy:      -634.727820  Gnorm:      1.028643  CPU:    1.847
  Cycle:     27 Energy:      -636.649194  Gnorm:      0.883804  CPU:    1.953
  Cycle:     28 Energy:      -638.394353  Gnorm:      0.849934  CPU:    2.063
  Cycle:     29 Energy:      -640.320031  Gnorm:      0.777097  CPU:    2.156
  Cycle:     30 Energy:      -641.243893  Gnorm:      0.662409  CPU:    2.232
  Cycle:     31 Energy:      -642.346228  Gnorm:      0.649489  CPU:    2.321
  Cycle:     32 Energy:      -643.614443  Gnorm:      0.589866  CPU:    2.397
  Cycle:     33 Energy:      -644.447430  Gnorm:      0.611397  CPU:    2.447
  Cycle:     34 Energy:      -645.027624  Gnorm:      0.490729  CPU:    2.496
  Cycle:     35 Energy:      -645.511333  Gnorm:      0.408513  CPU:    2.561
  Cycle:     36 Energy:      -645.854189  Gnorm:      0.312910  CPU:    2.622
  Cycle:     37 Energy:      -646.027468  Gnorm:      0.256017  CPU:    2.672
  Cycle:     38 Energy:      -646.147801  Gnorm:      0.202328  CPU:    2.737
  Cycle:     39 Energy:      -646.248125  Gnorm:      0.191255  CPU:    2.787
  Cycle:     40 Energy:      -646.288173  Gnorm:      0.139053  CPU:    2.841
  Cycle:     41 Energy:      -646.333628  Gnorm:      0.122990  CPU:    2.902
  Cycle:     42 Energy:      -646.363848  Gnorm:      0.110270  CPU:    2.955
  Cycle:     43 Energy:      -646.392879  Gnorm:      0.092824  CPU:    3.016
  Cycle:     44 Energy:      -646.414555  Gnorm:      0.087988  CPU:    3.081
  Cycle:     45 Energy:      -646.433658  Gnorm:      0.090370  CPU:    3.142
  Cycle:     46 Energy:      -646.448390  Gnorm:      0.072869  CPU:    3.196
  Cycle:     47 Energy:      -646.458181  Gnorm:      0.064719  CPU:    3.257
  Cycle:     48 Energy:      -646.465515  Gnorm:      0.052376  CPU:    3.310
  Cycle:     49 Energy:      -646.473101  Gnorm:      0.052129  CPU:    3.360
  Cycle:     50 Energy:      -646.476775  Gnorm:      0.032543  CPU:    3.413
  Cycle:     51 Energy:      -646.479338  Gnorm:      0.032750  CPU:    3.463
  Cycle:     52 Energy:      -646.481847  Gnorm:      0.033517  CPU:    3.517
  Cycle:     53 Energy:      -646.485055  Gnorm:      0.034573  CPU:    3.567
  Cycle:     54 Energy:      -646.488682  Gnorm:      0.038744  CPU:    3.619
  Cycle:     55 Energy:      -646.492929  Gnorm:      0.043625  CPU:    3.670
  Cycle:     56 Energy:      -646.499843  Gnorm:      0.044955  CPU:    3.735
  Cycle:     57 Energy:      -646.506349  Gnorm:      0.058930  CPU:    3.785
  Cycle:     58 Energy:      -646.512513  Gnorm:      0.051785  CPU:    3.839
  Cycle:     59 Energy:      -646.523348  Gnorm:      0.086729  CPU:    3.900
  Cycle:     60 Energy:      -646.528809  Gnorm:      0.035024  CPU:    3.953
  Cycle:     61 Energy:      -646.532165  Gnorm:      0.037560  CPU:    4.003
  Cycle:     62 Energy:      -646.534941  Gnorm:      0.033274  CPU:    4.057
  Cycle:     63 Energy:      -646.537398  Gnorm:      0.027668  CPU:    4.107
  Cycle:     64 Energy:      -646.539858  Gnorm:      0.024777  CPU:    4.159
  Cycle:     65 Energy:      -646.541434  Gnorm:      0.024147  CPU:    4.210
  Cycle:     66 Energy:      -646.542709  Gnorm:      0.021228  CPU:    4.261
  Cycle:     67 Energy:      -646.543772  Gnorm:      0.022587  CPU:    4.313
  Cycle:     68 Energy:      -646.544767  Gnorm:      0.023441  CPU:    4.367
  Cycle:     69 Energy:      -646.546152  Gnorm:      0.025371  CPU:    4.429
  Cycle:     70 Energy:      -646.547117  Gnorm:      0.020499  CPU:    4.482
  Cycle:     71 Energy:      -646.547917  Gnorm:      0.018824  CPU:    4.532
  Cycle:     72 Energy:      -646.548589  Gnorm:      0.016596  CPU:    4.583
  Cycle:     73 Energy:      -646.549357  Gnorm:      0.018652  CPU:    4.647
  Cycle:     74 Energy:      -646.550150  Gnorm:      0.018613  CPU:    4.700
  Cycle:     75 Energy:      -646.551145  Gnorm:      0.021200  CPU:    4.761
  Cycle:     76 Energy:      -646.552221  Gnorm:      0.020775  CPU:    4.815
  Cycle:     77 Energy:      -646.553407  Gnorm:      0.021611  CPU:    4.865
  Cycle:     78 Energy:      -646.554874  Gnorm:      0.020232  CPU:    4.930
  Cycle:     79 Energy:      -646.556626  Gnorm:      0.036225  CPU:    4.991
  Cycle:     80 Energy:      -646.557815  Gnorm:      0.019457  CPU:    5.044
  Cycle:     81 Energy:      -646.558646  Gnorm:      0.018762  CPU:    5.094
  Cycle:     82 Energy:      -646.559338  Gnorm:      0.017545  CPU:    5.146
  Cycle:     83 Energy:      -646.559937  Gnorm:      0.014036  CPU:    5.197
  Cycle:     84 Energy:      -646.560587  Gnorm:      0.012396  CPU:    5.262
  Cycle:     85 Energy:      -646.561021  Gnorm:      0.012499  CPU:    5.312
  Cycle:     86 Energy:      -646.561359  Gnorm:      0.010813  CPU:    5.366
  Cycle:     87 Energy:      -646.561657  Gnorm:      0.011025  CPU:    5.416
  Cycle:     88 Energy:      -646.561982  Gnorm:      0.012894  CPU:    5.467
  Cycle:     89 Energy:      -646.562286  Gnorm:      0.013039  CPU:    5.519
  Cycle:     90 Energy:      -646.562534  Gnorm:      0.011828  CPU:    5.573
  Cycle:     91 Energy:      -646.562793  Gnorm:      0.009860  CPU:    5.623
  ** Hessian has required structure
  Cycle:     92 Energy:      -646.565538  Gnorm:      0.007306  CPU:    5.825
  ** Hessian has required structure
  Cycle:     93 Energy:      -646.568203  Gnorm:      0.003845  CPU:    5.916
  ** Hessian has required structure
  Cycle:     94 Energy:      -646.569143  Gnorm:      0.000999  CPU:    5.999
  ** Hessian has required structure


  **** Optimisation achieved ****


  Final enthalpy =    -646.56914727 eV      
  Final Gnorm    =       0.00009375

  Components of enthalpy : 

--------------------------------------------------------------------------------
  Interatomic potentials     =         222.50709700 eV    
  Monopole - monopole (real) =        -507.74491995 eV    
  Monopole - monopole (recip)=        -489.56803068 eV    
  Monopole - monopole (total)=        -997.31295063 eV    
  Pressure*volume            =         128.23670636 eV    
--------------------------------------------------------------------------------
  Total lattice enthalpy     =        -646.56914727 eV    
--------------------------------------------------------------------------------
  Total lattice enthalpy     =          -62384.0390 kJ/(mole unit cells)
--------------------------------------------------------------------------------

  Final fractional coordinates of atoms :

--------------------------------------------------------------------------------
   No.  Atomic        x           y          z          Radius
        Label       (Frac)      (Frac)     (Frac)       (Angs) 
--------------------------------------------------------------------------------
     1  Al    c     0.881495    0.118505    0.500000    0.000000
     2  Al    c     0.814338    0.526902    0.525298    0.000000
     3  Al    c     0.455188    0.206698    0.501298    0.000000
     4  Al    c     0.131838    0.878767    0.480742    0.000000
     5  Al    c     0.213056    0.469555    0.441708    0.000000
     6  Al    c     0.569250    0.781770    0.499481    0.000000
     7  Al    c     0.354656    0.849446    0.008615    0.000000
     8  Al    c     0.707913    0.197478    0.007564    0.000000
     9  Mg    c     0.181058    0.181806    0.972497    0.000000
    10  Mg    c     0.827472    0.818281    0.000149    0.000000
    11  Mg    c     0.020395    0.521876    0.980326    0.000000
    12  Mg    c     0.504462    0.491763    0.992275    0.000000
    13  O     c     0.460420    0.171400    0.141934    0.000000
    14  O     c     0.888667    0.362134    0.297938    0.000000
    15  O     c     0.624938    0.556645    0.352356    0.000000
    16  O     c     0.756759    0.495729    0.881363    0.000000
    17  O     c     0.937838    0.180674    0.846828    0.000000
    18  O     c     0.372204    0.409401    0.649065    0.000000
    19  O     c     0.553413    0.803163    0.846981    0.000000
    20  O     c     0.290879    0.995870    0.731312    0.000000
    21  O     c     0.070072    0.592164    0.603020    0.000000
    22  O     c     0.258950    0.516631    0.089263    0.000000
    23  O     c     0.081948    0.824935    0.126376    0.000000
    24  O     c     0.712111    0.980885    0.250929    0.000000
    25  O     c     0.362183    0.798215    0.374272    0.000000
    26  O     c     0.652529    0.181091    0.639408    0.000000
    27  O     c     0.132266    0.168499    0.393386    0.000000
    28  O     c     0.878639    0.834373    0.577113    0.000000
--------------------------------------------------------------------------------

  Final Cartesian lattice vectors (Angstroms) :

        6.830754   -2.655909    0.063248
        0.472972    6.126131    0.175136
        0.120049    0.122109    4.772469


  Final cell parameters and derivatives :

--------------------------------------------------------------------------------
       a            7.329192 Angstrom     dE/de1(xx)    -0.001599 eV/strain
       b            6.146857 Angstrom     dE/de2(yy)     0.001325 eV/strain
       c            4.775540 Angstrom     dE/de3(zz)    -0.000159 eV/strain
       alpha       86.795986 Degrees      dE/de4(yz)     0.000477 eV/strain
       beta        88.694290 Degrees      dE/de5(xz)     0.000779 eV/strain
       gamma      106.809688 Degrees      dE/de6(xy)    -0.001654 eV/strain
--------------------------------------------------------------------------------

  Primitive cell volume =           205.459441 Angs**3

  Density of cell =      4.599422 g/cm**3

  Non-primitive cell volume =           205.459441 Angs**3


  Final internal derivatives :

--------------------------------------------------------------------------------
   No.  Atomic          a             b             c           Radius
        Label          (eV)          (eV)          (eV)        (eV/Angs)
--------------------------------------------------------------------------------
      1 Al    c       0.000000      0.000000      0.000000      0.000000
      2 Al    c      -0.000015      0.001460      0.000278      0.000000
      3 Al    c      -0.000361     -0.001139     -0.000419      0.000000
      4 Al    c       0.001217     -0.000434     -0.000150      0.000000
      5 Al    c       0.002118      0.002637      0.000177      0.000000
      6 Al    c      -0.000465      0.002168      0.000869      0.000000
      7 Al    c      -0.000355     -0.000121     -0.000123      0.000000
      8 Al    c      -0.000168     -0.000104     -0.000388      0.000000
      9 Mg    c       0.000287      0.000639     -0.001096      0.000000
     10 Mg    c       0.000646     -0.000425      0.000168      0.000000
     11 Mg    c      -0.000154      0.000626     -0.000260      0.000000
     12 Mg    c       0.000044      0.000248      0.000167      0.000000
     13 O     c       0.000190      0.000658     -0.000394      0.000000
     14 O     c      -0.001262      0.000188      0.000115      0.000000
     15 O     c      -0.002292      0.001441      0.000250      0.000000
     16 O     c      -0.000112     -0.000265     -0.000068      0.000000
     17 O     c      -0.000730      0.000489     -0.000391      0.000000
     18 O     c       0.001418     -0.001312      0.000041      0.000000
     19 O     c       0.000147     -0.000361     -0.000256      0.000000
     20 O     c      -0.000050      0.000662     -0.000021      0.000000
     21 O     c       0.000533     -0.000775     -0.000586      0.000000
     22 O     c       0.000802      0.000066     -0.000241      0.000000
     23 O     c       0.000312     -0.000042     -0.000066      0.000000
     24 O     c       0.001069      0.000353      0.000713      0.000000
     25 O     c      -0.000852      0.000456     -0.001002      0.000000
     26 O     c       0.001215     -0.001576     -0.000122      0.000000
     27 O     c      -0.001620     -0.002045      0.000494      0.000000
     28 O     c      -0.000893     -0.000100     -0.000288      0.000000
--------------------------------------------------------------------------------
  Maximum abs         0.002292      0.002637      0.001096      0.000000
--------------------------------------------------------------------------------


  Time to end of optimisation =       6.0685 seconds


  Peak dynamic memory used =       2.03 MB 


  Timing analysis for GULP :

--------------------------------------------------------------------------------
  Task / Subroutine                                          Time (Seconds)
--------------------------------------------------------------------------------
  Calculation of reciprocal space energy and derivatives          0.2763
  Calculation of real space energy and derivatives                5.6839
  Calculation and manipulation of Hessian matrix                  0.0766
  Global summation overhead                                       0.0006
--------------------------------------------------------------------------------
  Total CPU time                                                  6.0685
--------------------------------------------------------------------------------


  Job Finished at 15:50.08 11th June       2024                               

