********************************************************************************
*                       GENERAL UTILITY LATTICE PROGRAM                        *
*                                 Julian Gale                                  *
*                       Curtin Institute for Computation                       *
*                    School of Molecular and Life Sciences                     *
*                    Curtin University, Western Australia                      *
********************************************************************************
* Version = 6.0.0 * Last modified =  12th July 2021                            *
********************************************************************************
*  optimise     - perform optimisation run                                     *
*  conp         - constant pressure calculation                                *
*  nosymmetry   - turn off symmetry after initial structure generation         *
*  conjugate    - use conjugate gradients minimiser                            *
********************************************************************************

  Job Started  at 15:47.54 11th June       2024                               

  Number of CPUs =     1


  Total number of configurations input =      1

********************************************************************************
*  Input for Configuration =   1                                               *
********************************************************************************

  Formula = Al8Mg4O16                                                   

  Number of irreducible atoms/shells =      28


  Total number atoms/shells =      28

  Dimensionality = 3               :  Bulk   



  Cartesian lattice vectors (Angstroms) :

        2.516141   -1.452694    0.000000
        0.000000    2.905389    0.000000
        0.000000    0.000000   21.392057

  Cell parameters (Angstroms/Degrees):

  a =       2.9054    alpha =  90.0000
  b =       2.9054    beta  =  90.0000
  c =      21.3921    gamma = 120.0000

  Initial cell volume =         156.383788 Angs**3

  Temperature of configuration =   0.00     K 

  Pressure of configuration =       100.000 GPa 

  Fractional coordinates of asymmetric unit :

--------------------------------------------------------------------------------
   No.  Atomic       x           y          z         Charge      Occupancy
        Label      (Frac)      (Frac)     (Frac)        (e)         (Frac)  
--------------------------------------------------------------------------------
      1 Al    c    0.333333    0.666667    0.500000     3.00000    1.000000    
      2 Al    c    0.666667 *  0.333333 *  0.500000 *   3.00000    1.000000    
      3 Al    c    0.000000 *  0.000000 *  0.360252 *   3.00000    1.000000    
      4 Al    c    0.000000 *  0.000000 *  0.639748 *   3.00000    1.000000    
      5 Al    c    0.333333 *  0.666667 *  0.200876 *   3.00000    1.000000    
      6 Al    c    0.333333 *  0.666667 *  0.799124 *   3.00000    1.000000    
      7 Al    c    0.666667 *  0.333333 *  0.799124 *   3.00000    1.000000    
      8 Al    c    0.666667 *  0.333333 *  0.200876 *   3.00000    1.000000    
      9 Mg    c    0.333333 *  0.666667 *  0.000000 *   2.00000    1.000000    
     10 Mg    c    0.666667 *  0.333333 *  0.000000 *   2.00000    1.000000    
     11 Mg    c    0.000000 *  0.000000 *  0.500000 *   2.00000    1.000000    
     12 Mg    c    0.000000 *  0.000000 *  0.000000 *   2.00000    1.000000    
     13 O     c    0.151204 *  0.782237 *  0.407160 *  -2.00000    1.000000    
     14 O     c    0.217763 *  0.368966 *  0.407160 *  -2.00000    1.000000    
     15 O     c    0.631034 *  0.848796 *  0.407160 *  -2.00000    1.000000    
     16 O     c    0.151204 *  0.782237 *  0.592840 *  -2.00000    1.000000    
     17 O     c    0.217763 *  0.368966 *  0.592840 *  -2.00000    1.000000    
     18 O     c    0.631034 *  0.848796 *  0.592840 *  -2.00000    1.000000    
     19 O     c    0.782237 *  0.151204 *  0.592840 *  -2.00000    1.000000    
     20 O     c    0.368966 *  0.217763 *  0.592840 *  -2.00000    1.000000    
     21 O     c    0.848796 *  0.631034 *  0.592840 *  -2.00000    1.000000    
     22 O     c    0.782237 *  0.151204 *  0.407160 *  -2.00000    1.000000    
     23 O     c    0.368966 *  0.217763 *  0.407160 *  -2.00000    1.000000    
     24 O     c    0.848796 *  0.631034 *  0.407160 *  -2.00000    1.000000    
     25 O     c    0.333333 *  0.666667 *  0.338457 *  -2.00000    1.000000    
     26 O     c    0.333333 *  0.666667 *  0.661543 *  -2.00000    1.000000    
     27 O     c    0.666667 *  0.333333 *  0.661543 *  -2.00000    1.000000    
     28 O     c    0.666667 *  0.333333 *  0.338457 *  -2.00000    1.000000    
--------------------------------------------------------------------------------



********************************************************************************
*  General input information                                                   *
********************************************************************************

  Species output for all configurations : 

--------------------------------------------------------------------------------
  Species    Type    Atomic    Atomic    Charge       Radii (Angs)     Library
                     Number     Mass       (e)     Cova   Ionic  VDW   Symbol
--------------------------------------------------------------------------------
    Mg       Core       12      24.31   2.000000   1.100  0.000  1.640          
    Al       Core       13      26.98   3.000000   1.350  0.000  2.050          
    O        Core        8      16.00  -2.000000   0.730  0.000  1.360          
--------------------------------------------------------------------------------


  Lattice summation method               =    Ewald          (3-D)
                                         =    Parry          (2-D)
                                         =    Saunders et al (1-D)
  Accuracy factor for lattice sums       =   12.000


  Analytic derivatives to be used

  Time limit = Infinity

  Maximum range for interatomic potentials =    100000.000000 Angstroms

  General interatomic potentials :

--------------------------------------------------------------------------------
Atom  Types   Potential      Parameter       Value         Units   Cutoffs(Ang)
  1     2                                                            Min /  Max 
--------------------------------------------------------------------------------
O    c Mg   c Lennard       Lennard-Jones A  1.5000000    eV*Ang^m  0.000  6.000
                            Lennard-Jones B  0.0000000    eV*Ang^n  
                            Exponent m        12          None
                            Exponent n         6          None
--------------------------------------------------------------------------------
O    c Al   c Lennard       Lennard-Jones A  1.5000000    eV*Ang^m  0.000  6.000
                            Lennard-Jones B  0.0000000    eV*Ang^n  
                            Exponent m        12          None
                            Exponent n         6          None
--------------------------------------------------------------------------------
O    c O    c Lennard       Lennard-Jones A  1.5000000    eV*Ang^m  0.000  6.000
                            Lennard-Jones B  0.0000000    eV*Ang^n  
                            Exponent m        12          None
                            Exponent n         6          None
--------------------------------------------------------------------------------
Mg   c Mg   c Lennard       Lennard-Jones A  1.5000000    eV*Ang^m  0.000  6.000
                            Lennard-Jones B  0.0000000    eV*Ang^n  
                            Exponent m        12          None
                            Exponent n         6          None
--------------------------------------------------------------------------------
Mg   c Al   c Lennard       Lennard-Jones A  1.5000000    eV*Ang^m  0.000  6.000
                            Lennard-Jones B  0.0000000    eV*Ang^n  
                            Exponent m        12          None
                            Exponent n         6          None
--------------------------------------------------------------------------------
Al   c Al   c Lennard       Lennard-Jones A  1.5000000    eV*Ang^m  0.000  6.000
                            Lennard-Jones B  0.0000000    eV*Ang^n  
                            Exponent m        12          None
                            Exponent n         6          None
--------------------------------------------------------------------------------
O    c Mg   c Buckingham    Buckingham A     1428.5000    eV        0.000  7.000
                            Buckingham rho  0.29450000    Ang       
                            Buckingham C     0.0000000    eV*Ang^6  
--------------------------------------------------------------------------------
O    c Al   c Buckingham    Buckingham A     1114.9000    eV        0.000  7.000
                            Buckingham rho  0.31180000    Ang       
                            Buckingham C     0.0000000    eV*Ang^6  
--------------------------------------------------------------------------------
O    c O    c Buckingham    Buckingham A     2023.8000    eV        0.000  7.000
                            Buckingham rho  0.26740000    Ang       
                            Buckingham C     0.0000000    eV*Ang^6  
--------------------------------------------------------------------------------

********************************************************************************
*  Output for configuration   1                                                *
********************************************************************************


  Components of enthalpy : 

--------------------------------------------------------------------------------
  Interatomic potentials     =        1857.24537097 eV    
  Monopole - monopole (real) =        1241.15296740 eV    
  Monopole - monopole (recip)=        5653.25281949 eV    
  Monopole - monopole (total)=        6894.40578689 eV    
  Pressure*volume            =          97.60632964 eV    
--------------------------------------------------------------------------------
  Total lattice enthalpy     =        8849.25748751 eV    
--------------------------------------------------------------------------------
  Total lattice enthalpy     =          853818.0743 kJ/(mole unit cells)
--------------------------------------------------------------------------------


  Number of variables =       87

  Maximum number of calculations  =           850
  Maximum Hessian update interval =            10
  Maximum step size               =   1.000000000
  Maximum parameter tolerance     =   0.000010000
  Maximum function  tolerance     =   0.000010000
  Maximum gradient  tolerance     =   0.001000000
  Maximum gradient  component     =   0.010000000

  Cell parameters to be optimised using strains

  Conjugate gradient optimiser to be used

  Lower half triangular hessian to be used

  Minimiser to switch to RFO
  When gradient norm is less than     0.010000

  Start of bulk optimisation :

  Cycle:      0 Energy:      8849.257488  Gnorm:    424.581268  CPU:    0.054
  Cycle:      1 Energy:      1330.621052  Gnorm:    159.795622  CPU:    0.222
  Cycle:      2 Energy:       854.154584  Gnorm:     64.599666  CPU:    0.343
  Cycle:      3 Energy:       618.033537  Gnorm:     66.187305  CPU:    0.434
  Cycle:      4 Energy:       416.964421  Gnorm:     51.419173  CPU:    0.540
  Cycle:      5 Energy:       188.998640  Gnorm:     52.521743  CPU:    0.624
  Cycle:      6 Energy:       -83.087570  Gnorm:     41.846700  CPU:    0.725
  Cycle:      7 Energy:      -258.979230  Gnorm:     22.653150  CPU:    0.790
  Cycle:      8 Energy:      -373.441762  Gnorm:     17.380461  CPU:    0.903
  Cycle:      9 Energy:      -425.298105  Gnorm:     15.655462  CPU:    0.981
  Cycle:     10 Energy:      -455.245022  Gnorm:      5.354681  CPU:    1.062
  Cycle:     11 Energy:      -477.732894  Gnorm:     11.750375  CPU:    1.140
  Cycle:     12 Energy:      -527.410724  Gnorm:      3.825397  CPU:    1.233
  Cycle:     13 Energy:      -534.769206  Gnorm:      3.235080  CPU:    1.307
  Cycle:     14 Energy:      -540.021318  Gnorm:      1.890142  CPU:    1.390
  Cycle:     15 Energy:      -543.517079  Gnorm:      2.630357  CPU:    1.467
  Cycle:     16 Energy:      -547.342982  Gnorm:      2.092821  CPU:    1.542
  Cycle:     17 Energy:      -553.818496  Gnorm:      3.713628  CPU:    1.617
  Cycle:     18 Energy:      -559.997514  Gnorm:      3.424904  CPU:    1.698
  Cycle:     19 Energy:      -564.223354  Gnorm:      2.304872  CPU:    1.772
  Cycle:     20 Energy:      -566.039438  Gnorm:      1.829298  CPU:    1.858
  Cycle:     21 Energy:      -569.030821  Gnorm:      2.092358  CPU:    1.932
  Cycle:     22 Energy:      -570.872209  Gnorm:      1.811799  CPU:    1.993
  Cycle:     23 Energy:      -573.779870  Gnorm:      1.959716  CPU:    2.067
  Cycle:     24 Energy:      -575.851330  Gnorm:      2.094329  CPU:    2.127
  Cycle:     25 Energy:      -582.656313  Gnorm:      3.931070  CPU:    2.205
  Cycle:     26 Energy:      -587.381787  Gnorm:      2.457367  CPU:    2.266
  Cycle:     27 Energy:      -591.988203  Gnorm:      2.810779  CPU:    2.344
  Cycle:     28 Energy:      -595.690693  Gnorm:      2.393297  CPU:    2.404
  Cycle:     29 Energy:      -599.714292  Gnorm:      1.691489  CPU:    2.482
  Cycle:     30 Energy:      -600.855895  Gnorm:      1.320685  CPU:    2.542
  Cycle:     31 Energy:      -602.473655  Gnorm:      2.022773  CPU:    2.620
  Cycle:     32 Energy:      -605.874954  Gnorm:      1.610476  CPU:    2.696
  Cycle:     33 Energy:      -607.721610  Gnorm:      1.388601  CPU:    2.757
  Cycle:     34 Energy:      -610.095414  Gnorm:      1.825148  CPU:    2.831
  Cycle:     35 Energy:      -611.741642  Gnorm:      1.646252  CPU:    2.895
  Cycle:     36 Energy:      -614.021579  Gnorm:      1.869154  CPU:    2.968
  Cycle:     37 Energy:      -617.368947  Gnorm:      2.147067  CPU:    3.053
  Cycle:     38 Energy:      -619.497811  Gnorm:      1.721029  CPU:    3.114
  Cycle:     39 Energy:      -623.001463  Gnorm:      2.005837  CPU:    3.197
  Cycle:     40 Energy:      -625.392975  Gnorm:      1.557792  CPU:    3.263
  Cycle:     41 Energy:      -626.802238  Gnorm:      1.514265  CPU:    3.336
  Cycle:     42 Energy:      -629.721991  Gnorm:      1.508279  CPU:    3.410
  Cycle:     43 Energy:      -632.654446  Gnorm:      1.475884  CPU:    3.483
  Cycle:     44 Energy:      -636.941072  Gnorm:      1.464384  CPU:    3.561
  Cycle:     45 Energy:      -638.179086  Gnorm:      1.281309  CPU:    3.635
  Cycle:     46 Energy:      -639.826012  Gnorm:      1.014236  CPU:    3.709
  Cycle:     47 Energy:      -640.777995  Gnorm:      0.683451  CPU:    3.774
  Cycle:     48 Energy:      -641.157632  Gnorm:      0.461861  CPU:    3.834
  Cycle:     49 Energy:      -641.297628  Gnorm:      0.321898  CPU:    3.900
  Cycle:     50 Energy:      -641.385748  Gnorm:      0.345893  CPU:    3.976
  Cycle:     51 Energy:      -641.498121  Gnorm:      0.283801  CPU:    4.053
  Cycle:     52 Energy:      -641.613393  Gnorm:      0.267797  CPU:    4.126
  Cycle:     53 Energy:      -641.699340  Gnorm:      0.214888  CPU:    4.191
  Cycle:     54 Energy:      -641.756756  Gnorm:      0.304610  CPU:    4.264
  Cycle:     55 Energy:      -641.857227  Gnorm:      0.242591  CPU:    4.341
  Cycle:     56 Energy:      -641.981290  Gnorm:      0.313442  CPU:    4.406
  Cycle:     57 Energy:      -642.038485  Gnorm:      0.198873  CPU:    4.467
  Cycle:     58 Energy:      -642.098516  Gnorm:      0.184412  CPU:    4.540
  Cycle:     59 Energy:      -642.138910  Gnorm:      0.212895  CPU:    4.599
  Cycle:     60 Energy:      -642.159396  Gnorm:      0.127061  CPU:    4.659
  Cycle:     61 Energy:      -642.174111  Gnorm:      0.095987  CPU:    4.735
  Cycle:     62 Energy:      -642.216644  Gnorm:      0.152637  CPU:    4.808
  Cycle:     63 Energy:      -642.252905  Gnorm:      0.171613  CPU:    4.871
  Cycle:     64 Energy:      -642.296499  Gnorm:      0.172138  CPU:    4.931
  Cycle:     65 Energy:      -642.341365  Gnorm:      0.213862  CPU:    4.995
  Cycle:     66 Energy:      -642.382161  Gnorm:      0.199086  CPU:    5.062
  Cycle:     67 Energy:      -642.431377  Gnorm:      0.235057  CPU:    5.139
  Cycle:     68 Energy:      -642.500586  Gnorm:      0.215200  CPU:    5.213
  Cycle:     69 Energy:      -642.573686  Gnorm:      0.220990  CPU:    5.289
  Cycle:     70 Energy:      -642.609224  Gnorm:      0.146631  CPU:    5.349
  Cycle:     71 Energy:      -642.637863  Gnorm:      0.132735  CPU:    5.428
  Cycle:     72 Energy:      -642.654291  Gnorm:      0.118457  CPU:    5.489
  Cycle:     73 Energy:      -642.668337  Gnorm:      0.128028  CPU:    5.567
  Cycle:     74 Energy:      -642.685815  Gnorm:      0.120155  CPU:    5.627
  Cycle:     75 Energy:      -642.710086  Gnorm:      0.114351  CPU:    5.702
  Cycle:     76 Energy:      -642.758854  Gnorm:      0.145528  CPU:    5.779
  Cycle:     77 Energy:      -642.779861  Gnorm:      0.180808  CPU:    5.841
  Cycle:     78 Energy:      -642.813719  Gnorm:      0.135889  CPU:    5.915
  Cycle:     79 Energy:      -642.830673  Gnorm:      0.129077  CPU:    5.979
  Cycle:     80 Energy:      -642.841446  Gnorm:      0.114371  CPU:    6.039
  Cycle:     81 Energy:      -642.861153  Gnorm:      0.144956  CPU:    6.116
  Cycle:     82 Energy:      -642.883214  Gnorm:      0.150782  CPU:    6.176
  Cycle:     83 Energy:      -642.917492  Gnorm:      0.136790  CPU:    6.254
  Cycle:     84 Energy:      -642.947341  Gnorm:      0.163587  CPU:    6.327
  Cycle:     85 Energy:      -642.969500  Gnorm:      0.147254  CPU:    6.390
  Cycle:     86 Energy:      -642.991406  Gnorm:      0.131471  CPU:    6.449
  Cycle:     87 Energy:      -643.014756  Gnorm:      0.124122  CPU:    6.526
  Cycle:     88 Energy:      -643.044496  Gnorm:      0.168493  CPU:    6.600
  Cycle:     89 Energy:      -643.077537  Gnorm:      0.201966  CPU:    6.659
  Cycle:     90 Energy:      -643.097576  Gnorm:      0.151869  CPU:    6.719
  Cycle:     91 Energy:      -643.128592  Gnorm:      0.122888  CPU:    6.780
  Cycle:     92 Energy:      -643.170077  Gnorm:      0.127663  CPU:    6.855
  Cycle:     93 Energy:      -643.195310  Gnorm:      0.179965  CPU:    6.918
  Cycle:     94 Energy:      -643.246843  Gnorm:      0.156345  CPU:    6.995
  Cycle:     95 Energy:      -643.268579  Gnorm:      0.161665  CPU:    7.056
  Cycle:     96 Energy:      -643.297735  Gnorm:      0.171930  CPU:    7.129
  Cycle:     97 Energy:      -643.327959  Gnorm:      0.117960  CPU:    7.206
  Cycle:     98 Energy:      -643.349534  Gnorm:      0.139759  CPU:    7.284
  Cycle:     99 Energy:      -643.368258  Gnorm:      0.177168  CPU:    7.347
  Cycle:    100 Energy:      -643.383544  Gnorm:      0.118516  CPU:    7.410
  Cycle:    101 Energy:      -643.398301  Gnorm:      0.097419  CPU:    7.487
  Cycle:    102 Energy:      -643.420534  Gnorm:      0.133151  CPU:    7.549
  Cycle:    103 Energy:      -643.445902  Gnorm:      0.142951  CPU:    7.625
  Cycle:    104 Energy:      -643.460676  Gnorm:      0.140780  CPU:    7.686
  Cycle:    105 Energy:      -643.496726  Gnorm:      0.170548  CPU:    7.760
  Cycle:    106 Energy:      -643.546485  Gnorm:      0.192869  CPU:    7.834
  Cycle:    107 Energy:      -643.571503  Gnorm:      0.166820  CPU:    7.893
  Cycle:    108 Energy:      -643.607930  Gnorm:      0.201647  CPU:    7.967
  Cycle:    109 Energy:      -643.653431  Gnorm:      0.176890  CPU:    8.026
  Cycle:    110 Energy:      -643.677380  Gnorm:      0.128780  CPU:    8.086
  Cycle:    111 Energy:      -643.695229  Gnorm:      0.113271  CPU:    8.158
  Cycle:    112 Energy:      -643.713550  Gnorm:      0.148960  CPU:    8.218
  Cycle:    113 Energy:      -643.731258  Gnorm:      0.117571  CPU:    8.281
  Cycle:    114 Energy:      -643.757077  Gnorm:      0.122052  CPU:    8.353
  Cycle:    115 Energy:      -643.786856  Gnorm:      0.161363  CPU:    8.429
  Cycle:    116 Energy:      -643.808416  Gnorm:      0.142406  CPU:    8.488
  Cycle:    117 Energy:      -643.826129  Gnorm:      0.125903  CPU:    8.548
  Cycle:    118 Energy:      -643.848807  Gnorm:      0.118251  CPU:    8.621
  Cycle:    119 Energy:      -643.862219  Gnorm:      0.120598  CPU:    8.681
  Cycle:    120 Energy:      -643.871961  Gnorm:      0.106489  CPU:    8.740
  Cycle:    121 Energy:      -643.883150  Gnorm:      0.099158  CPU:    8.813
  Cycle:    122 Energy:      -643.895551  Gnorm:      0.099679  CPU:    8.886
  Cycle:    123 Energy:      -643.915358  Gnorm:      0.137363  CPU:    8.946
  Cycle:    124 Energy:      -643.939177  Gnorm:      0.122738  CPU:    9.006
  Cycle:    125 Energy:      -643.958901  Gnorm:      0.117360  CPU:    9.066
  Cycle:    126 Energy:      -643.971526  Gnorm:      0.128168  CPU:    9.126
  Cycle:    127 Energy:      -643.989655  Gnorm:      0.104619  CPU:    9.202
  Cycle:    128 Energy:      -644.008828  Gnorm:      0.134470  CPU:    9.278
  Cycle:    129 Energy:      -644.035244  Gnorm:      0.156489  CPU:    9.340
  Cycle:    130 Energy:      -644.051705  Gnorm:      0.120766  CPU:    9.406
  Cycle:    131 Energy:      -644.065330  Gnorm:      0.106416  CPU:    9.480
  Cycle:    132 Energy:      -644.077640  Gnorm:      0.104458  CPU:    9.541
  Cycle:    133 Energy:      -644.091570  Gnorm:      0.087206  CPU:    9.619
  Cycle:    134 Energy:      -644.102078  Gnorm:      0.098154  CPU:    9.683
  Cycle:    135 Energy:      -644.131487  Gnorm:      0.125278  CPU:    9.755
  Cycle:    136 Energy:      -644.143899  Gnorm:      0.092604  CPU:    9.814
  Cycle:    137 Energy:      -644.153878  Gnorm:      0.067991  CPU:    9.891
  Cycle:    138 Energy:      -644.161127  Gnorm:      0.101137  CPU:    9.965
  Cycle:    139 Energy:      -644.170587  Gnorm:      0.102641  CPU:   10.038
  Cycle:    140 Energy:      -644.178341  Gnorm:      0.082408  CPU:   10.097
  Cycle:    141 Energy:      -644.183305  Gnorm:      0.069275  CPU:   10.156
  Cycle:    142 Energy:      -644.190434  Gnorm:      0.072944  CPU:   10.224
  Cycle:    143 Energy:      -644.199764  Gnorm:      0.098732  CPU:   10.296
  Cycle:    144 Energy:      -644.216379  Gnorm:      0.103129  CPU:   10.369
  Cycle:    145 Energy:      -644.227126  Gnorm:      0.077050  CPU:   10.429
  Cycle:    146 Energy:      -644.235182  Gnorm:      0.094689  CPU:   10.501
  Cycle:    147 Energy:      -644.241798  Gnorm:      0.074948  CPU:   10.561
  Cycle:    148 Energy:      -644.252924  Gnorm:      0.087504  CPU:   10.633
  Cycle:    149 Energy:      -644.264058  Gnorm:      0.105101  CPU:   10.692
  Cycle:    150 Energy:      -644.271917  Gnorm:      0.069184  CPU:   10.751
  Cycle:    151 Energy:      -644.278136  Gnorm:      0.061037  CPU:   10.824
  Cycle:    152 Energy:      -644.284251  Gnorm:      0.063304  CPU:   10.883
  Cycle:    153 Energy:      -644.289026  Gnorm:      0.057700  CPU:   10.942
  Cycle:    154 Energy:      -644.292166  Gnorm:      0.072127  CPU:   11.001
  Cycle:    155 Energy:      -644.302407  Gnorm:      0.055729  CPU:   11.073
  Cycle:    156 Energy:      -644.307048  Gnorm:      0.043210  CPU:   11.132
  Cycle:    157 Energy:      -644.309587  Gnorm:      0.043756  CPU:   11.191
  Cycle:    158 Energy:      -644.311385  Gnorm:      0.052856  CPU:   11.250
  Cycle:    159 Energy:      -644.317638  Gnorm:      0.088272  CPU:   11.323
  Cycle:    160 Energy:      -644.321852  Gnorm:      0.044189  CPU:   11.382
  Cycle:    161 Energy:      -644.323259  Gnorm:      0.039930  CPU:   11.441
  Cycle:    162 Energy:      -644.325248  Gnorm:      0.039563  CPU:   11.500
  Cycle:    163 Energy:      -644.327403  Gnorm:      0.044078  CPU:   11.559
  Cycle:    164 Energy:      -644.330283  Gnorm:      0.047413  CPU:   11.618
  Cycle:    165 Energy:      -644.334222  Gnorm:      0.052468  CPU:   11.690
  Cycle:    166 Energy:      -644.336250  Gnorm:      0.052567  CPU:   11.749
  Cycle:    167 Energy:      -644.339949  Gnorm:      0.045184  CPU:   11.821
  Cycle:    168 Energy:      -644.343809  Gnorm:      0.044051  CPU:   11.893
  Cycle:    169 Energy:      -644.345367  Gnorm:      0.048394  CPU:   11.952
  Cycle:    170 Energy:      -644.346522  Gnorm:      0.037244  CPU:   12.011
  Cycle:    171 Energy:      -644.348984  Gnorm:      0.038052  CPU:   12.077
  Cycle:    172 Energy:      -644.351690  Gnorm:      0.043471  CPU:   12.141
  Cycle:    173 Energy:      -644.353862  Gnorm:      0.041610  CPU:   12.201
  Cycle:    174 Energy:      -644.356302  Gnorm:      0.034995  CPU:   12.275
  Cycle:    175 Energy:      -644.357806  Gnorm:      0.039660  CPU:   12.336
  Cycle:    176 Energy:      -644.358933  Gnorm:      0.030968  CPU:   12.397
  Cycle:    177 Energy:      -644.360128  Gnorm:      0.024465  CPU:   12.457
  Cycle:    178 Energy:      -644.361179  Gnorm:      0.030105  CPU:   12.529
  Cycle:    179 Energy:      -644.364725  Gnorm:      0.075516  CPU:   12.589
  Cycle:    180 Energy:      -644.366786  Gnorm:      0.032695  CPU:   12.651
  Cycle:    181 Energy:      -644.367888  Gnorm:      0.027125  CPU:   12.710
  Cycle:    182 Energy:      -644.368897  Gnorm:      0.028066  CPU:   12.769
  Cycle:    183 Energy:      -644.369832  Gnorm:      0.026059  CPU:   12.830
  Cycle:    184 Energy:      -644.370904  Gnorm:      0.028321  CPU:   12.890
  Cycle:    185 Energy:      -644.371733  Gnorm:      0.036836  CPU:   12.950
  Cycle:    186 Energy:      -644.373375  Gnorm:      0.033011  CPU:   13.014
  Cycle:    187 Energy:      -644.375314  Gnorm:      0.032137  CPU:   13.074
  Cycle:    188 Energy:      -644.376202  Gnorm:      0.034185  CPU:   13.133
  Cycle:    189 Energy:      -644.377452  Gnorm:      0.028739  CPU:   13.192
  Cycle:    190 Energy:      -644.378057  Gnorm:      0.024955  CPU:   13.251
  Cycle:    191 Energy:      -644.378662  Gnorm:      0.027257  CPU:   13.310
  Cycle:    192 Energy:      -644.380028  Gnorm:      0.031488  CPU:   13.369
  Cycle:    193 Energy:      -644.381453  Gnorm:      0.032100  CPU:   13.428
  Cycle:    194 Energy:      -644.382650  Gnorm:      0.026175  CPU:   13.492
  Cycle:    195 Energy:      -644.383445  Gnorm:      0.023121  CPU:   13.557
  Cycle:    196 Energy:      -644.384031  Gnorm:      0.028046  CPU:   13.617
  Cycle:    197 Energy:      -644.384768  Gnorm:      0.023369  CPU:   13.679
  Cycle:    198 Energy:      -644.385706  Gnorm:      0.021723  CPU:   13.738
  Cycle:    199 Energy:      -644.387060  Gnorm:      0.049809  CPU:   13.819
  Cycle:    200 Energy:      -644.388085  Gnorm:      0.028126  CPU:   13.878
  Cycle:    201 Energy:      -644.388868  Gnorm:      0.021869  CPU:   13.941
  Cycle:    202 Energy:      -644.389803  Gnorm:      0.021416  CPU:   14.000
  Cycle:    203 Energy:      -644.390409  Gnorm:      0.024530  CPU:   14.064
  Cycle:    204 Energy:      -644.390935  Gnorm:      0.023165  CPU:   14.124
  Cycle:    205 Energy:      -644.391665  Gnorm:      0.028673  CPU:   14.187
  Cycle:    206 Energy:      -644.392631  Gnorm:      0.027611  CPU:   14.259
  Cycle:    207 Energy:      -644.393980  Gnorm:      0.026102  CPU:   14.323
  Cycle:    208 Energy:      -644.394616  Gnorm:      0.023439  CPU:   14.382
  Cycle:    209 Energy:      -644.395012  Gnorm:      0.020419  CPU:   14.445
  Cycle:    210 Energy:      -644.395352  Gnorm:      0.021492  CPU:   14.504
  Cycle:    211 Energy:      -644.395888  Gnorm:      0.024000  CPU:   14.566
  Cycle:    212 Energy:      -644.396896  Gnorm:      0.025905  CPU:   14.625
  Cycle:    213 Energy:      -644.397843  Gnorm:      0.026484  CPU:   14.691
  Cycle:    214 Energy:      -644.398672  Gnorm:      0.022233  CPU:   14.751
  Cycle:    215 Energy:      -644.399241  Gnorm:      0.021874  CPU:   14.816
  Cycle:    216 Energy:      -644.399676  Gnorm:      0.022993  CPU:   14.876
  Cycle:    217 Energy:      -644.400290  Gnorm:      0.019365  CPU:   14.939
  Cycle:    218 Energy:      -644.400974  Gnorm:      0.020527  CPU:   15.014
  Cycle:    219 Energy:      -644.402924  Gnorm:      0.061651  CPU:   15.078
  Cycle:    220 Energy:      -644.404382  Gnorm:      0.028226  CPU:   15.139
  Cycle:    221 Energy:      -644.405047  Gnorm:      0.019369  CPU:   15.202
  Cycle:    222 Energy:      -644.405841  Gnorm:      0.019523  CPU:   15.262
  Cycle:    223 Energy:      -644.406343  Gnorm:      0.020826  CPU:   15.327
  Cycle:    224 Energy:      -644.406791  Gnorm:      0.019973  CPU:   15.388
  Cycle:    225 Energy:      -644.407266  Gnorm:      0.024764  CPU:   15.451
  Cycle:    226 Energy:      -644.407917  Gnorm:      0.022614  CPU:   15.510
  Cycle:    227 Energy:      -644.408875  Gnorm:      0.021698  CPU:   15.573
  Cycle:    228 Energy:      -644.409502  Gnorm:      0.018281  CPU:   15.632
  Cycle:    229 Energy:      -644.409733  Gnorm:      0.018242  CPU:   15.694
  Cycle:    230 Energy:      -644.409929  Gnorm:      0.016720  CPU:   15.754
  Cycle:    231 Energy:      -644.410425  Gnorm:      0.019191  CPU:   15.817
  Cycle:    232 Energy:      -644.411126  Gnorm:      0.020565  CPU:   15.876
  Cycle:    233 Energy:      -644.411849  Gnorm:      0.021687  CPU:   15.939
  Cycle:    234 Energy:      -644.412377  Gnorm:      0.020076  CPU:   15.998
  Cycle:    235 Energy:      -644.412811  Gnorm:      0.020731  CPU:   16.060
  Cycle:    236 Energy:      -644.413234  Gnorm:      0.021480  CPU:   16.119
  Cycle:    237 Energy:      -644.413789  Gnorm:      0.018299  CPU:   16.189
  Cycle:    238 Energy:      -644.414321  Gnorm:      0.019140  CPU:   16.252
  Cycle:    239 Energy:      -644.416820  Gnorm:      0.054050  CPU:   16.326
  Cycle:    240 Energy:      -644.418367  Gnorm:      0.029407  CPU:   16.385
  Cycle:    241 Energy:      -644.418864  Gnorm:      0.019866  CPU:   16.444
  Cycle:    242 Energy:      -644.419600  Gnorm:      0.020727  CPU:   16.504
  Cycle:    243 Energy:      -644.420096  Gnorm:      0.019898  CPU:   16.563
  Cycle:    244 Energy:      -644.420519  Gnorm:      0.017182  CPU:   16.622
  Cycle:    245 Energy:      -644.420810  Gnorm:      0.019044  CPU:   16.682
  Cycle:    246 Energy:      -644.421213  Gnorm:      0.018252  CPU:   16.754
  Cycle:    247 Energy:      -644.421733  Gnorm:      0.016777  CPU:   16.826
  Cycle:    248 Energy:      -644.422107  Gnorm:      0.017871  CPU:   16.885
  Cycle:    249 Energy:      -644.422346  Gnorm:      0.014826  CPU:   16.944
  Cycle:    250 Energy:      -644.422485  Gnorm:      0.013270  CPU:   17.003
  Cycle:    251 Energy:      -644.422706  Gnorm:      0.015060  CPU:   17.062
  Cycle:    252 Energy:      -644.423067  Gnorm:      0.014808  CPU:   17.135
  Cycle:    253 Energy:      -644.423484  Gnorm:      0.015253  CPU:   17.194
  Cycle:    254 Energy:      -644.423706  Gnorm:      0.019131  CPU:   17.253
  Cycle:    255 Energy:      -644.424247  Gnorm:      0.018537  CPU:   17.312
  Cycle:    256 Energy:      -644.424700  Gnorm:      0.020532  CPU:   17.371
  Cycle:    257 Energy:      -644.425196  Gnorm:      0.020625  CPU:   17.430
  Cycle:    258 Energy:      -644.425624  Gnorm:      0.019946  CPU:   17.489
  Cycle:    259 Energy:      -644.426195  Gnorm:      0.027702  CPU:   17.548
  Cycle:    260 Energy:      -644.426606  Gnorm:      0.018352  CPU:   17.607
  Cycle:    261 Energy:      -644.426954  Gnorm:      0.020079  CPU:   17.666
  Cycle:    262 Energy:      -644.427460  Gnorm:      0.018519  CPU:   17.726
  Cycle:    263 Energy:      -644.427817  Gnorm:      0.016651  CPU:   17.785
  Cycle:    264 Energy:      -644.428367  Gnorm:      0.014709  CPU:   17.848
  Cycle:    265 Energy:      -644.428575  Gnorm:      0.017863  CPU:   17.907
  Cycle:    266 Energy:      -644.428918  Gnorm:      0.014023  CPU:   17.966
  Cycle:    267 Energy:      -644.429180  Gnorm:      0.012462  CPU:   18.025
  Cycle:    268 Energy:      -644.429307  Gnorm:      0.008890  CPU:   18.084
  ** Hessian has wrong structure
  ** Imaginary eigenvectors =   1
  ** Hessian has wrong structure
  ** Imaginary eigenvectors =   1
  Cycle:    269 Energy:      -644.434072  Gnorm:      0.010436  CPU:   18.553
  ** Hessian has wrong structure
  ** Imaginary eigenvectors =   1
  Cycle:    270 Energy:      -644.440001  Gnorm:      0.023291  CPU:   18.761
  ** Hessian has required structure
  Cycle:    271 Energy:      -644.452667  Gnorm:      0.018276  CPU:   18.990
  ** Hessian has required structure
  Cycle:    272 Energy:      -644.465199  Gnorm:      0.012107  CPU:   19.102
  ** Hessian has required structure
  Cycle:    273 Energy:      -644.470678  Gnorm:      0.007739  CPU:   19.192
  ** Hessian has required structure
  Cycle:    274 Energy:      -644.471085  Gnorm:      0.004918  CPU:   19.270
  ** Hessian has required structure
  Cycle:    275 Energy:      -644.471353  Gnorm:      0.001323  CPU:   19.362
  ** Hessian has required structure
  Cycle:    276 Energy:      -644.471367  Gnorm:      0.000462  CPU:   19.440
  ** Hessian has required structure


  **** Optimisation achieved ****


  Final enthalpy =    -644.47136839 eV      
  Final Gnorm    =       0.00015120

  Components of enthalpy : 

--------------------------------------------------------------------------------
  Interatomic potentials     =         221.27081740 eV    
  Monopole - monopole (real) =        -504.66756580 eV    
  Monopole - monopole (recip)=        -489.40531304 eV    
  Monopole - monopole (total)=        -994.07287884 eV    
  Pressure*volume            =         128.33069305 eV    
--------------------------------------------------------------------------------
  Total lattice enthalpy     =        -644.47136839 eV    
--------------------------------------------------------------------------------
  Total lattice enthalpy     =          -62181.6354 kJ/(mole unit cells)
--------------------------------------------------------------------------------

  Final fractional coordinates of atoms :

--------------------------------------------------------------------------------
   No.  Atomic        x           y          z          Radius
        Label       (Frac)      (Frac)     (Frac)       (Angs) 
--------------------------------------------------------------------------------
     1  Al    c     0.333333    0.666667    0.500000    0.000000
     2  Al    c     0.451410    0.214111    0.499999    0.000000
     3  Al    c     0.886635    0.210595    0.281071    0.000000
     4  Al    c     0.886630    0.210592    0.718927    0.000000
     5  Al    c     0.239229    0.876551    0.191430    0.000000
     6  Al    c     0.239225    0.876549    0.808570    0.000000
     7  Al    c     0.560192    0.545059    0.749861    0.000000
     8  Al    c     0.560197    0.545062    0.250137    0.000000
     9  Mg    c     0.470402    0.653357    0.999998    0.000000
    10  Mg    c     0.747261    0.370718    0.999999    0.000000
    11  Mg    c     0.920010    0.800774    0.499999    0.000000
    12  Mg    c     0.012623    0.105297    0.000001    0.000000
    13  O     c     0.738786    0.400711    0.367890    0.000000
    14  O     c     0.237314    0.348680    0.379809    0.000000
    15  O     c     0.624162    0.003323    0.135652    0.000000
    16  O     c     0.738783    0.400706    0.632108    0.000000
    17  O     c     0.237313    0.348672    0.620191    0.000000
    18  O     c     0.624155    0.003323    0.864346    0.000000
    19  O     c     0.682721    0.850256    0.629005    0.000000
    20  O     c     0.259905    0.886670    0.621225    0.000000
    21  O     c     0.866907    0.744620    0.866259    0.000000
    22  O     c     0.682730    0.850260    0.370992    0.000000
    23  O     c     0.259912    0.886675    0.378774    0.000000
    24  O     c     0.866917    0.744623    0.133738    0.000000
    25  O     c     0.131032    0.501967    0.144754    0.000000
    26  O     c     0.131029    0.501965    0.855244    0.000000
    27  O     c     0.369219    0.245970    0.867278    0.000000
    28  O     c     0.369225    0.245973    0.132723    0.000000
--------------------------------------------------------------------------------

  Final Cartesian lattice vectors (Angstroms) :

        4.409532   -2.860565    0.025642
       -0.252003    5.285397   -0.013452
       -0.038948    0.021271    9.103510


  Final cell parameters and derivatives :

--------------------------------------------------------------------------------
       a            5.256183 Angstrom     dE/de1(xx)    -0.000588 eV/strain
       b            5.291419 Angstrom     dE/de2(yy)     0.000230 eV/strain
       c            9.103619 Angstrom     dE/de3(zz)    -0.000228 eV/strain
       alpha       90.000263 Degrees      dE/de4(yz)    -0.000833 eV/strain
       beta        89.998989 Degrees      dE/de5(xz)     0.002280 eV/strain
       gamma      125.702404 Degrees      dE/de6(xy)    -0.000485 eV/strain
--------------------------------------------------------------------------------

  Primitive cell volume =           205.610025 Angs**3

  Density of cell =      4.596053 g/cm**3

  Non-primitive cell volume =           205.610025 Angs**3


  Final internal derivatives :

--------------------------------------------------------------------------------
   No.  Atomic          a             b             c           Radius
        Label          (eV)          (eV)          (eV)        (eV/Angs)
--------------------------------------------------------------------------------
      1 Al    c       0.000000      0.000000      0.000000      0.000000
      2 Al    c       0.000917     -0.002842     -0.000951      0.000000
      3 Al    c      -0.000354     -0.000494     -0.000378      0.000000
      4 Al    c      -0.001225      0.000604     -0.000644      0.000000
      5 Al    c      -0.000315      0.000594      0.001133      0.000000
      6 Al    c      -0.000817      0.000800     -0.000053      0.000000
      7 Al    c       0.001365     -0.000116     -0.001329      0.000000
      8 Al    c       0.000812      0.000317      0.001094      0.000000
      9 Mg    c       0.000162      0.000087      0.000444      0.000000
     10 Mg    c       0.000137      0.000354      0.000038      0.000000
     11 Mg    c       0.000257      0.002388      0.001099      0.000000
     12 Mg    c       0.000416     -0.000083      0.000626      0.000000
     13 O     c       0.001082     -0.002290     -0.004758      0.000000
     14 O     c      -0.002322      0.001770     -0.000841      0.000000
     15 O     c      -0.000629      0.000103     -0.001264      0.000000
     16 O     c      -0.000221     -0.000993      0.004983      0.000000
     17 O     c      -0.001886      0.000904      0.002230      0.000000
     18 O     c      -0.000169      0.000049     -0.000065      0.000000
     19 O     c      -0.000664     -0.001184     -0.006168      0.000000
     20 O     c      -0.000275      0.000225     -0.000678      0.000000
     21 O     c      -0.000021      0.000079      0.000586      0.000000
     22 O     c      -0.000841     -0.000441      0.004250      0.000000
     23 O     c      -0.000151      0.000275      0.000485      0.000000
     24 O     c       0.000346     -0.000243     -0.000346      0.000000
     25 O     c       0.000153      0.000021      0.000177      0.000000
     26 O     c       0.000669     -0.000445     -0.000158      0.000000
     27 O     c      -0.000224      0.000231      0.000382      0.000000
     28 O     c       0.000179      0.000127     -0.000549      0.000000
--------------------------------------------------------------------------------
  Maximum abs         0.002322      0.002842      0.006168      0.000000
--------------------------------------------------------------------------------


  Time to end of optimisation =      19.5188 seconds


  Peak dynamic memory used =       2.03 MB 


  Timing analysis for GULP :

--------------------------------------------------------------------------------
  Task / Subroutine                                          Time (Seconds)
--------------------------------------------------------------------------------
  Calculation of reciprocal space energy and derivatives          0.8292
  Calculation of real space energy and derivatives               18.4187
  Calculation and manipulation of Hessian matrix                  0.4088
  Global summation overhead                                       0.0019
--------------------------------------------------------------------------------
  Total CPU time                                                 19.5188
--------------------------------------------------------------------------------


  Job Finished at 15:48.13 11th June       2024                               

