********************************************************************************
*                       GENERAL UTILITY LATTICE PROGRAM                        *
*                                 Julian Gale                                  *
*                       Curtin Institute for Computation                       *
*                    School of Molecular and Life Sciences                     *
*                    Curtin University, Western Australia                      *
********************************************************************************
* Version = 6.0.0 * Last modified =  12th July 2021                            *
********************************************************************************
*  optimise     - perform optimisation run                                     *
*  conp         - constant pressure calculation                                *
*  nosymmetry   - turn off symmetry after initial structure generation         *
*  conjugate    - use conjugate gradients minimiser                            *
********************************************************************************

  Job Started  at 15:50.24 11th June       2024                               

  Number of CPUs =     1


  Total number of configurations input =      1

********************************************************************************
*  Input for Configuration =   1                                               *
********************************************************************************

  Formula = Al8Mg4O16                                                   

  Number of irreducible atoms/shells =      28


  Total number atoms/shells =      28

  Dimensionality = 3               :  Bulk   



  Cartesian lattice vectors (Angstroms) :

        7.782522    0.000000    0.000000
        0.000000    7.782522    0.000000
        0.000000    0.000000    5.300448

  Cell parameters (Angstroms/Degrees):

  a =       7.7825    alpha =  90.0000
  b =       7.7825    beta  =  90.0000
  c =       5.3004    gamma =  90.0000

  Initial cell volume =         321.035727 Angs**3

  Temperature of configuration =   0.00     K 

  Pressure of configuration =       100.000 GPa 

  Fractional coordinates of asymmetric unit :

--------------------------------------------------------------------------------
   No.  Atomic       x           y          z         Charge      Occupancy
        Label      (Frac)      (Frac)     (Frac)        (e)         (Frac)  
--------------------------------------------------------------------------------
      1 Al    c    0.087579    0.087579    0.673288     3.00000    1.000000    
      2 Al    c    0.412421 *  0.412421 *  0.673288 *   3.00000    1.000000    
      3 Al    c    0.412421 *  0.087579 *  0.173288 *   3.00000    1.000000    
      4 Al    c    0.087579 *  0.412421 *  0.173288 *   3.00000    1.000000    
      5 Al    c    0.912421 *  0.587579 *  0.826712 *   3.00000    1.000000    
      6 Al    c    0.587579 *  0.912421 *  0.826712 *   3.00000    1.000000    
      7 Al    c    0.587579 *  0.587579 *  0.326712 *   3.00000    1.000000    
      8 Al    c    0.912421 *  0.912421 *  0.326712 *   3.00000    1.000000    
      9 Mg    c    0.250000 *  0.250000 *  0.101512 *   2.00000    1.000000    
     10 Mg    c    0.250000 *  0.250000 *  0.601512 *   2.00000    1.000000    
     11 Mg    c    0.750000 *  0.750000 *  0.398488 *   2.00000    1.000000    
     12 Mg    c    0.750000 *  0.750000 *  0.898488 *   2.00000    1.000000    
     13 O     c    0.000000 *  0.000000 *  0.500000 *  -2.00000    1.000000    
     14 O     c    0.500000 *  0.500000 *  0.500000 *  -2.00000    1.000000    
     15 O     c    0.500000 *  0.000000 *  0.000000 *  -2.00000    1.000000    
     16 O     c    0.000000 *  0.500000 *  0.000000 *  -2.00000    1.000000    
     17 O     c    0.361141 *  0.638859 *  0.500000 *  -2.00000    1.000000    
     18 O     c    0.138859 *  0.861141 *  0.500000 *  -2.00000    1.000000    
     19 O     c    0.861141 *  0.361141 *  0.000000 *  -2.00000    1.000000    
     20 O     c    0.638859 *  0.138859 *  0.000000 *  -2.00000    1.000000    
     21 O     c    0.638859 *  0.361141 *  0.500000 *  -2.00000    1.000000    
     22 O     c    0.861141 *  0.138859 *  0.500000 *  -2.00000    1.000000    
     23 O     c    0.138859 *  0.638859 *  0.000000 *  -2.00000    1.000000    
     24 O     c    0.361141 *  0.861141 *  0.000000 *  -2.00000    1.000000    
     25 O     c    0.750000 *  0.250000 *  0.000000 *  -2.00000    1.000000    
     26 O     c    0.250000 *  0.750000 *  0.500000 *  -2.00000    1.000000    
     27 O     c    0.250000 *  0.750000 *  0.000000 *  -2.00000    1.000000    
     28 O     c    0.750000 *  0.250000 *  0.500000 *  -2.00000    1.000000    
--------------------------------------------------------------------------------



********************************************************************************
*  General input information                                                   *
********************************************************************************

  Species output for all configurations : 

--------------------------------------------------------------------------------
  Species    Type    Atomic    Atomic    Charge       Radii (Angs)     Library
                     Number     Mass       (e)     Cova   Ionic  VDW   Symbol
--------------------------------------------------------------------------------
    Mg       Core       12      24.31   2.000000   1.100  0.000  1.640          
    Al       Core       13      26.98   3.000000   1.350  0.000  2.050          
    O        Core        8      16.00  -2.000000   0.730  0.000  1.360          
--------------------------------------------------------------------------------


  Lattice summation method               =    Ewald          (3-D)
                                         =    Parry          (2-D)
                                         =    Saunders et al (1-D)
  Accuracy factor for lattice sums       =   12.000


  Analytic derivatives to be used

  Time limit = Infinity

  Maximum range for interatomic potentials =    100000.000000 Angstroms

  General interatomic potentials :

--------------------------------------------------------------------------------
Atom  Types   Potential      Parameter       Value         Units   Cutoffs(Ang)
  1     2                                                            Min /  Max 
--------------------------------------------------------------------------------
O    c Mg   c Lennard       Lennard-Jones A  1.5000000    eV*Ang^m  0.000  6.000
                            Lennard-Jones B  0.0000000    eV*Ang^n  
                            Exponent m        12          None
                            Exponent n         6          None
--------------------------------------------------------------------------------
O    c Al   c Lennard       Lennard-Jones A  1.5000000    eV*Ang^m  0.000  6.000
                            Lennard-Jones B  0.0000000    eV*Ang^n  
                            Exponent m        12          None
                            Exponent n         6          None
--------------------------------------------------------------------------------
O    c O    c Lennard       Lennard-Jones A  1.5000000    eV*Ang^m  0.000  6.000
                            Lennard-Jones B  0.0000000    eV*Ang^n  
                            Exponent m        12          None
                            Exponent n         6          None
--------------------------------------------------------------------------------
Mg   c Mg   c Lennard       Lennard-Jones A  1.5000000    eV*Ang^m  0.000  6.000
                            Lennard-Jones B  0.0000000    eV*Ang^n  
                            Exponent m        12          None
                            Exponent n         6          None
--------------------------------------------------------------------------------
Mg   c Al   c Lennard       Lennard-Jones A  1.5000000    eV*Ang^m  0.000  6.000
                            Lennard-Jones B  0.0000000    eV*Ang^n  
                            Exponent m        12          None
                            Exponent n         6          None
--------------------------------------------------------------------------------
Al   c Al   c Lennard       Lennard-Jones A  1.5000000    eV*Ang^m  0.000  6.000
                            Lennard-Jones B  0.0000000    eV*Ang^n  
                            Exponent m        12          None
                            Exponent n         6          None
--------------------------------------------------------------------------------
O    c Mg   c Buckingham    Buckingham A     1428.5000    eV        0.000  7.000
                            Buckingham rho  0.29450000    Ang       
                            Buckingham C     0.0000000    eV*Ang^6  
--------------------------------------------------------------------------------
O    c Al   c Buckingham    Buckingham A     1114.9000    eV        0.000  7.000
                            Buckingham rho  0.31180000    Ang       
                            Buckingham C     0.0000000    eV*Ang^6  
--------------------------------------------------------------------------------
O    c O    c Buckingham    Buckingham A     2023.8000    eV        0.000  7.000
                            Buckingham rho  0.26740000    Ang       
                            Buckingham C     0.0000000    eV*Ang^6  
--------------------------------------------------------------------------------

********************************************************************************
*  Output for configuration   1                                                *
********************************************************************************


  Components of enthalpy : 

--------------------------------------------------------------------------------
  Interatomic potentials     =         379.66010303 eV    
  Monopole - monopole (real) =          48.25960338 eV    
  Monopole - monopole (recip)=        -367.63974240 eV    
  Monopole - monopole (total)=        -319.38013903 eV    
  Pressure*volume            =         200.37319348 eV    
--------------------------------------------------------------------------------
  Total lattice enthalpy     =         260.65315748 eV    
--------------------------------------------------------------------------------
  Total lattice enthalpy     =           25149.0452 kJ/(mole unit cells)
--------------------------------------------------------------------------------


  Number of variables =       87

  Maximum number of calculations  =           850
  Maximum Hessian update interval =            10
  Maximum step size               =   1.000000000
  Maximum parameter tolerance     =   0.000010000
  Maximum function  tolerance     =   0.000010000
  Maximum gradient  tolerance     =   0.001000000
  Maximum gradient  component     =   0.010000000

  Cell parameters to be optimised using strains

  Conjugate gradient optimiser to be used

  Lower half triangular hessian to be used

  Minimiser to switch to RFO
  When gradient norm is less than     0.010000

  Start of bulk optimisation :

  Cycle:      0 Energy:       260.653157  Gnorm:     28.126634  CPU:    0.030
  Cycle:      1 Energy:       144.005125  Gnorm:      9.710969  CPU:    0.076
  Cycle:      2 Energy:        94.954475  Gnorm:     11.485671  CPU:    0.117
  Cycle:      3 Energy:        55.293184  Gnorm:      6.800212  CPU:    0.155
  Cycle:      4 Energy:        34.198262  Gnorm:      5.483418  CPU:    0.196
  Cycle:      5 Energy:        15.299158  Gnorm:      5.478206  CPU:    0.237
  Cycle:      6 Energy:       -15.369668  Gnorm:     12.988737  CPU:    0.289
  Cycle:      7 Energy:       -40.010934  Gnorm:      9.953280  CPU:    0.322
  Cycle:      8 Energy:       -89.629027  Gnorm:     15.528094  CPU:    0.370
  Cycle:      9 Energy:      -169.834384  Gnorm:     18.715478  CPU:    0.422
  Cycle:     10 Energy:      -262.012034  Gnorm:     13.281959  CPU:    0.478
  Cycle:     11 Energy:      -382.563449  Gnorm:      9.842004  CPU:    0.530
  Cycle:     12 Energy:      -455.353766  Gnorm:      7.091530  CPU:    0.578
  Cycle:     13 Energy:      -511.758388  Gnorm:      6.544057  CPU:    0.627
  Cycle:     14 Energy:      -555.246308  Gnorm:      5.286957  CPU:    0.681
  Cycle:     15 Energy:      -576.564347  Gnorm:      3.180682  CPU:    0.725
  Cycle:     16 Energy:      -592.441511  Gnorm:      2.248725  CPU:    0.768
  Cycle:     17 Energy:      -600.839820  Gnorm:      1.677626  CPU:    0.827
  Cycle:     18 Energy:      -605.404147  Gnorm:      1.252060  CPU:    0.886
  Cycle:     19 Energy:      -608.831275  Gnorm:      1.073977  CPU:    0.945
  Cycle:     20 Energy:      -609.948389  Gnorm:      0.699890  CPU:    0.993
  Cycle:     21 Energy:      -611.037343  Gnorm:      0.735276  CPU:    1.052
  Cycle:     22 Energy:      -612.426882  Gnorm:      0.667622  CPU:    1.112
  Cycle:     23 Energy:      -613.083161  Gnorm:      0.560812  CPU:    1.161
  Cycle:     24 Energy:      -613.724250  Gnorm:      0.470267  CPU:    1.221
  Cycle:     25 Energy:      -614.093452  Gnorm:      0.411393  CPU:    1.270
  Cycle:     26 Energy:      -614.409801  Gnorm:      0.350153  CPU:    1.329
  Cycle:     27 Energy:      -614.719843  Gnorm:      0.331874  CPU:    1.389
  Cycle:     28 Energy:      -615.171130  Gnorm:      0.426301  CPU:    1.449
  Cycle:     29 Energy:      -615.453226  Gnorm:      0.401810  CPU:    1.498
  Cycle:     30 Energy:      -615.614612  Gnorm:      0.301015  CPU:    1.546
  Cycle:     31 Energy:      -615.839538  Gnorm:      0.262051  CPU:    1.606
  Cycle:     32 Energy:      -616.097301  Gnorm:      0.349569  CPU:    1.665
  Cycle:     33 Energy:      -616.502854  Gnorm:      0.404348  CPU:    1.725
  Cycle:     34 Energy:      -616.814948  Gnorm:      0.405630  CPU:    1.774
  Cycle:     35 Energy:      -617.071744  Gnorm:      0.294713  CPU:    1.822
  Cycle:     36 Energy:      -617.294228  Gnorm:      0.215629  CPU:    1.885
  Cycle:     37 Energy:      -617.427403  Gnorm:      0.225506  CPU:    1.945
  Cycle:     38 Energy:      -617.516726  Gnorm:      0.211779  CPU:    1.993
  Cycle:     39 Energy:      -617.608125  Gnorm:      0.173627  CPU:    2.056
  Cycle:     40 Energy:      -617.649162  Gnorm:      0.133031  CPU:    2.105
  Cycle:     41 Energy:      -617.689164  Gnorm:      0.138981  CPU:    2.168
  Cycle:     42 Energy:      -617.729569  Gnorm:      0.134121  CPU:    2.228
  Cycle:     43 Energy:      -617.816365  Gnorm:      0.179963  CPU:    2.291
  Cycle:     44 Energy:      -617.882761  Gnorm:      0.163504  CPU:    2.340
  Cycle:     45 Energy:      -617.939421  Gnorm:      0.162372  CPU:    2.393
  Cycle:     46 Energy:      -618.009263  Gnorm:      0.121970  CPU:    2.452
  Cycle:     47 Energy:      -618.039273  Gnorm:      0.102701  CPU:    2.505
  Cycle:     48 Energy:      -618.055935  Gnorm:      0.084128  CPU:    2.554
  Cycle:     49 Energy:      -618.077505  Gnorm:      0.086585  CPU:    2.617
  Cycle:     50 Energy:      -618.087488  Gnorm:      0.063672  CPU:    2.666
  Cycle:     51 Energy:      -618.095259  Gnorm:      0.058705  CPU:    2.718
  Cycle:     52 Energy:      -618.104092  Gnorm:      0.059641  CPU:    2.778
  Cycle:     53 Energy:      -618.112823  Gnorm:      0.052357  CPU:    2.841
  Cycle:     54 Energy:      -618.117994  Gnorm:      0.042734  CPU:    2.890
  Cycle:     55 Energy:      -618.121517  Gnorm:      0.032709  CPU:    2.942
  Cycle:     56 Energy:      -618.124747  Gnorm:      0.027107  CPU:    3.002
  Cycle:     57 Energy:      -618.126634  Gnorm:      0.026950  CPU:    3.054
  Cycle:     58 Energy:      -618.127861  Gnorm:      0.023415  CPU:    3.103
  Cycle:     59 Energy:      -618.129635  Gnorm:      0.027012  CPU:    3.166
  Cycle:     60 Energy:      -618.130748  Gnorm:      0.017454  CPU:    3.215
  Cycle:     61 Energy:      -618.131551  Gnorm:      0.020869  CPU:    3.263
  Cycle:     62 Energy:      -618.132433  Gnorm:      0.016961  CPU:    3.312
  Cycle:     63 Energy:      -618.133308  Gnorm:      0.017908  CPU:    3.365
  Cycle:     64 Energy:      -618.134137  Gnorm:      0.018728  CPU:    3.413
  Cycle:     65 Energy:      -618.134943  Gnorm:      0.018604  CPU:    3.462
  Cycle:     66 Energy:      -618.135711  Gnorm:      0.018210  CPU:    3.515
  Cycle:     67 Energy:      -618.136471  Gnorm:      0.015384  CPU:    3.564
  Cycle:     68 Energy:      -618.136917  Gnorm:      0.014123  CPU:    3.616
  Cycle:     69 Energy:      -618.137348  Gnorm:      0.013688  CPU:    3.665
  Cycle:     70 Energy:      -618.137659  Gnorm:      0.010838  CPU:    3.718
  Cycle:     71 Energy:      -618.137876  Gnorm:      0.010328  CPU:    3.766
  Cycle:     72 Energy:      -618.138204  Gnorm:      0.010526  CPU:    3.830
  Cycle:     73 Energy:      -618.138440  Gnorm:      0.009152  CPU:    3.882
  ** Hessian has wrong structure
  ** Imaginary eigenvectors =   6
  ** Hessian has wrong structure
  ** Imaginary eigenvectors =   6
  Cycle:     74 Energy:      -618.146910  Gnorm:      0.044484  CPU:    4.300
  ** Hessian has wrong structure
  ** Imaginary eigenvectors =   6
  Cycle:     75 Energy:      -618.250114  Gnorm:      0.102856  CPU:    4.512
  ** Hessian has wrong structure
  ** Imaginary eigenvectors =   6
  Cycle:     76 Energy:      -618.565381  Gnorm:      0.192146  CPU:    4.810
  ** Hessian has wrong structure
  ** Imaginary eigenvectors =   6
  Cycle:     77 Energy:      -619.250856  Gnorm:      0.297177  CPU:    5.092
  ** Hessian has wrong structure
  ** Imaginary eigenvectors =   6
  ** Hessian has wrong structure
  ** Imaginary eigenvectors =   6
  Cycle:     78 Energy:      -619.849319  Gnorm:      0.358230  CPU:    5.512
  ** Hessian has wrong structure
  ** Imaginary eigenvectors =   6
  Cycle:     79 Energy:      -621.499653  Gnorm:      0.527876  CPU:    5.714
  ** Hessian has wrong structure
  ** Imaginary eigenvectors =   6
  Cycle:     80 Energy:      -626.809920  Gnorm:      0.628367  CPU:    6.019
  ** Hessian has wrong structure
  ** Imaginary eigenvectors =   5
  Cycle:     81 Energy:      -630.285558  Gnorm:      0.750443  CPU:    6.341
  ** Hessian has wrong structure
  ** Imaginary eigenvectors =   3
  Cycle:     82 Energy:      -631.770002  Gnorm:      0.801168  CPU:    6.678
  ** Hessian has wrong structure
  ** Imaginary eigenvectors =   2
  ** Hessian has wrong structure
  ** Imaginary eigenvectors =   2
  Cycle:     83 Energy:      -633.544402  Gnorm:      0.815678  CPU:    7.178
  ** Hessian has wrong structure
  ** Imaginary eigenvectors =   1
  Cycle:     84 Energy:      -635.448397  Gnorm:      1.001998  CPU:    7.369
  ** Hessian has wrong structure
  ** Imaginary eigenvectors =   3
  Cycle:     85 Energy:      -637.420295  Gnorm:      1.199677  CPU:    7.707
  ** Hessian has wrong structure
  ** Imaginary eigenvectors =   2
  ** Hessian has wrong structure
  ** Imaginary eigenvectors =   2
  Cycle:     86 Energy:      -638.782985  Gnorm:      1.023975  CPU:    8.193
  ** Hessian has wrong structure
  ** Imaginary eigenvectors =   1
  ** Hessian has wrong structure
  ** Imaginary eigenvectors =   1
  Cycle:     87 Energy:      -639.813413  Gnorm:      0.956415  CPU:    8.500
  ** Hessian has required structure
  Cycle:     88 Energy:      -641.429607  Gnorm:      1.065435  CPU:    8.589
  ** Hessian has required structure
  Cycle:     89 Energy:      -643.140491  Gnorm:      0.587640  CPU:    8.683
  ** Hessian has required structure
  Cycle:     90 Energy:      -643.590178  Gnorm:      0.436387  CPU:    8.772
  ** Hessian has required structure
  Cycle:     91 Energy:      -643.952964  Gnorm:      0.337742  CPU:    8.883
  ** Hessian has required structure
  Cycle:     92 Energy:      -644.175181  Gnorm:      0.222778  CPU:    8.972
  ** Hessian has required structure
  Cycle:     93 Energy:      -644.319773  Gnorm:      0.161178  CPU:    9.066
  ** Hessian has required structure
  Cycle:     94 Energy:      -644.401185  Gnorm:      0.127490  CPU:    9.156
  ** Hessian has required structure
  Cycle:     95 Energy:      -644.444743  Gnorm:      0.106685  CPU:    9.250
  ** Hessian has required structure
  Cycle:     96 Energy:      -644.472022  Gnorm:      0.096017  CPU:    9.339
  ** Hessian has required structure
  Cycle:     97 Energy:      -644.517354  Gnorm:      0.015950  CPU:    9.547
  ** Hessian has required structure
  Cycle:     98 Energy:      -644.518999  Gnorm:      0.004199  CPU:    9.654
  ** Hessian has required structure
  Cycle:     99 Energy:      -644.520016  Gnorm:      0.014190  CPU:    9.780
  ** Hessian has required structure
  Cycle:    100 Energy:      -644.521061  Gnorm:      0.028490  CPU:    9.890
  ** Hessian has required structure
  Cycle:    101 Energy:      -644.522284  Gnorm:      0.042993  CPU:   10.000
  ** Hessian has required structure
  Cycle:    102 Energy:      -644.529168  Gnorm:      0.048735  CPU:   10.109
  ** Hessian has required structure
  Cycle:    103 Energy:      -644.545007  Gnorm:      0.049071  CPU:   10.202
  ** Hessian has required structure
  Cycle:    104 Energy:      -644.578390  Gnorm:      0.082948  CPU:   10.285
  ** Hessian has required structure
  Cycle:    105 Energy:      -644.597428  Gnorm:      0.112079  CPU:   10.363
  ** Hessian has required structure
  Cycle:    106 Energy:      -644.633076  Gnorm:      0.142980  CPU:   10.446
  ** Hessian has wrong structure
  ** Imaginary eigenvectors =   1
  Cycle:    107 Energy:      -644.849894  Gnorm:      0.186482  CPU:   10.706
  ** Hessian has required structure
  Cycle:    108 Energy:      -645.104452  Gnorm:      0.109583  CPU:   10.880
  ** Hessian has required structure
  Cycle:    109 Energy:      -645.501436  Gnorm:      0.327262  CPU:   10.963
  ** Hessian has required structure
  Cycle:    110 Energy:      -645.583242  Gnorm:      0.432225  CPU:   11.025
  ** Hessian has required structure
  Cycle:    111 Energy:      -645.952444  Gnorm:      0.429113  CPU:   11.097
  ** Hessian has required structure
  Cycle:    112 Energy:      -646.418573  Gnorm:      0.280547  CPU:   11.159
  ** Hessian has required structure
  Cycle:    113 Energy:      -646.607717  Gnorm:      0.154522  CPU:   11.217
  ** Hessian has required structure
  Cycle:    114 Energy:      -646.710620  Gnorm:      0.125080  CPU:   11.278
  ** Hessian has required structure
  Cycle:    115 Energy:      -646.783088  Gnorm:      0.083038  CPU:   11.336
  ** Hessian has required structure
  Cycle:    116 Energy:      -646.816994  Gnorm:      0.067182  CPU:   11.391
  ** Hessian has required structure
  Cycle:    117 Energy:      -646.831818  Gnorm:      0.072797  CPU:   11.449
  ** Hessian has wrong structure
  ** Imaginary eigenvectors =   2
  Cycle:    118 Energy:      -646.898950  Gnorm:      0.077227  CPU:   11.671
  ** Hessian has wrong structure
  ** Imaginary eigenvectors =   1
  Cycle:    119 Energy:      -647.035670  Gnorm:      0.137551  CPU:   11.886
  ** Hessian has required structure
  Cycle:    120 Energy:      -647.189474  Gnorm:      0.059792  CPU:   12.037
  ** Hessian has required structure
  Cycle:    121 Energy:      -647.209057  Gnorm:      0.040695  CPU:   12.102
  ** Hessian has required structure
  Cycle:    122 Energy:      -647.222734  Gnorm:      0.025850  CPU:   12.164
  ** Hessian has required structure
  Cycle:    123 Energy:      -647.227217  Gnorm:      0.015043  CPU:   12.222
  ** Hessian has required structure
  Cycle:    124 Energy:      -647.230521  Gnorm:      0.020421  CPU:   12.284
  ** Hessian has required structure
  Cycle:    125 Energy:      -647.245420  Gnorm:      0.111304  CPU:   12.364
  ** Hessian has required structure
  Cycle:    126 Energy:      -647.249015  Gnorm:      0.157042  CPU:   12.425
  ** Hessian has required structure
  Cycle:    127 Energy:      -647.273089  Gnorm:      0.251965  CPU:   12.490
  ** Hessian has required structure
  Cycle:    128 Energy:      -647.386360  Gnorm:      0.287868  CPU:   12.552
  ** Hessian has required structure
  Cycle:    129 Energy:      -647.511664  Gnorm:      0.207181  CPU:   12.609
  ** Hessian has wrong structure
  ** Imaginary eigenvectors =   2
  Cycle:    130 Energy:      -647.625738  Gnorm:      0.232878  CPU:   12.823
  ** Hessian has wrong structure
  ** Imaginary eigenvectors =   1
  ** Hessian has required structure
  Cycle:    131 Energy:      -648.427333  Gnorm:      0.115066  CPU:   13.145
  ** Hessian has required structure
  Cycle:    132 Energy:      -648.462010  Gnorm:      0.065761  CPU:   13.199
  ** Hessian has required structure
  Cycle:    133 Energy:      -648.495021  Gnorm:      0.035331  CPU:   13.260
  ** Hessian has required structure
  Cycle:    134 Energy:      -648.504032  Gnorm:      0.030453  CPU:   13.318
  ** Hessian has required structure
  Cycle:    135 Energy:      -648.511296  Gnorm:      0.019447  CPU:   13.379
  ** Hessian has required structure
  Cycle:    136 Energy:      -648.515830  Gnorm:      0.023497  CPU:   13.436
  ** Hessian has required structure
  Cycle:    137 Energy:      -648.551428  Gnorm:      0.113752  CPU:   13.521
  ** Hessian has required structure
  Cycle:    138 Energy:      -648.554594  Gnorm:      0.132465  CPU:   13.585
  ** Hessian has required structure
  Cycle:    139 Energy:      -648.586094  Gnorm:      0.142758  CPU:   13.647
  ** Hessian has required structure
  Cycle:    140 Energy:      -648.643045  Gnorm:      0.084337  CPU:   13.712
  ** Hessian has required structure
  Cycle:    141 Energy:      -648.691228  Gnorm:      0.008249  CPU:   13.866
  ** Hessian has required structure
  Cycle:    142 Energy:      -648.691581  Gnorm:      0.001461  CPU:   13.920
  ** Hessian has required structure
  Cycle:    143 Energy:      -648.691602  Gnorm:      0.000235  CPU:   13.975
  ** Hessian has required structure


  **** Optimisation achieved ****


  Final enthalpy =    -648.69160270 eV      
  Final Gnorm    =       0.00003852

  Components of enthalpy : 

--------------------------------------------------------------------------------
  Interatomic potentials     =         221.28343400 eV    
  Monopole - monopole (real) =        -507.37709948 eV    
  Monopole - monopole (recip)=        -490.28000185 eV    
  Monopole - monopole (total)=        -997.65710133 eV    
  Pressure*volume            =         127.68206463 eV    
--------------------------------------------------------------------------------
  Total lattice enthalpy     =        -648.69160270 eV    
--------------------------------------------------------------------------------
  Total lattice enthalpy     =          -62588.8235 kJ/(mole unit cells)
--------------------------------------------------------------------------------

  Final fractional coordinates of atoms :

--------------------------------------------------------------------------------
   No.  Atomic        x           y          z          Radius
        Label       (Frac)      (Frac)     (Frac)       (Angs) 
--------------------------------------------------------------------------------
     1  Al    c     0.087579    0.087579    0.673288    0.000000
     2  Al    c     0.799259    0.465554    0.735569    0.000000
     3  Al    c     0.567762    0.668345    0.173555    0.000000
     4  Al    c     0.957217    0.283531    0.190357    0.000000
     5  Al    c     0.452670    0.460956    0.676957    0.000000
     6  Al    c     0.748858    0.960894    0.679285    0.000000
     7  Al    c     0.628977    0.163015    0.172655    0.000000
     8  Al    c     0.244655    0.786191    0.180966    0.000000
     9  Mg    c     0.289746    0.283613    0.209250    0.000000
    10  Mg    c     0.422852    0.964054    0.709476    0.000000
    11  Mg    c     0.919685    0.778109    0.209966    0.000000
    12  Mg    c     0.136949    0.583184    0.672894    0.000000
    13  O     c     0.287178    0.246959    0.628855    0.000000
    14  O     c     0.603921    0.232100    0.803361    0.000000
    15  O     c     0.425272    0.996876    0.114021    0.000000
    16  O     c     0.018586    0.337460    0.856426    0.000000
    17  O     c     0.542479    0.393493    0.358845    0.000000
    18  O     c     0.097971    0.525607    0.277538    0.000000
    19  O     c     0.782633    0.495187    0.109136    0.000000
    20  O     c     0.902259    0.734580    0.622431    0.000000
    21  O     c     0.853174    0.219363    0.503695    0.000000
    22  O     c     0.651640    0.896662    0.373211    0.000000
    23  O     c     0.154347    0.878169    0.883748    0.000000
    24  O     c     0.618012    0.704553    0.803632    0.000000
    25  O     c     0.824147    0.041986    0.010975    0.000000
    26  O     c     0.345167    0.705927    0.486756    0.000000
    27  O     c     0.371451    0.555351    0.995100    0.000000
    28  O     c     0.101763    0.032565    0.325024    0.000000
--------------------------------------------------------------------------------

  Final Cartesian lattice vectors (Angstroms) :

        7.962646   -0.225581    0.122297
        0.152322    5.300250   -0.100378
        0.012725    0.018386    4.843078


  Final cell parameters and derivatives :

--------------------------------------------------------------------------------
       a            7.966779 Angstrom     dE/de1(xx)    -0.000195 eV/strain
       b            5.303388 Angstrom     dE/de2(yy)     0.000172 eV/strain
       c            4.843129 Angstrom     dE/de3(zz)    -0.000287 eV/strain
       alpha       90.862763 Degrees      dE/de4(yz)    -0.000463 eV/strain
       beta        88.976114 Degrees      dE/de5(xz)    -0.000741 eV/strain
       gamma       89.993255 Degrees      dE/de6(xy)    -0.000265 eV/strain
--------------------------------------------------------------------------------

  Primitive cell volume =           204.570800 Angs**3

  Density of cell =      4.619401 g/cm**3

  Non-primitive cell volume =           204.570800 Angs**3


  Final internal derivatives :

--------------------------------------------------------------------------------
   No.  Atomic          a             b             c           Radius
        Label          (eV)          (eV)          (eV)        (eV/Angs)
--------------------------------------------------------------------------------
      1 Al    c       0.000000      0.000000      0.000000      0.000000
      2 Al    c      -0.000505      0.000309      0.000099      0.000000
      3 Al    c      -0.000168      0.000040      0.000230      0.000000
      4 Al    c      -0.000170     -0.000016     -0.000027      0.000000
      5 Al    c      -0.000035      0.000103     -0.000153      0.000000
      6 Al    c       0.000206     -0.000121      0.000038      0.000000
      7 Al    c      -0.000243      0.000191     -0.000394      0.000000
      8 Al    c      -0.000477     -0.000015     -0.000190      0.000000
      9 Mg    c       0.000560      0.000182      0.000866      0.000000
     10 Mg    c      -0.000008      0.000100     -0.000049      0.000000
     11 Mg    c       0.000447      0.000130     -0.000022      0.000000
     12 Mg    c      -0.000251      0.000109      0.000032      0.000000
     13 O     c       0.000624      0.000105     -0.000512      0.000000
     14 O     c       0.000000     -0.000097      0.000244      0.000000
     15 O     c       0.001856      0.000505      0.000008      0.000000
     16 O     c       0.000086     -0.000026     -0.000007      0.000000
     17 O     c      -0.001077      0.000618     -0.000219      0.000000
     18 O     c      -0.000097     -0.000314      0.000180      0.000000
     19 O     c      -0.000606     -0.000226     -0.000210      0.000000
     20 O     c       0.000178     -0.000183      0.000062      0.000000
     21 O     c      -0.000221     -0.000043     -0.000042      0.000000
     22 O     c       0.000055     -0.000245     -0.000135      0.000000
     23 O     c       0.000130     -0.000024      0.000150      0.000000
     24 O     c       0.000219     -0.000404     -0.000143      0.000000
     25 O     c      -0.000473     -0.000371      0.000075      0.000000
     26 O     c      -0.000205     -0.000181     -0.000184      0.000000
     27 O     c      -0.000020     -0.000205      0.000207      0.000000
     28 O     c       0.000154      0.000093     -0.000256      0.000000
--------------------------------------------------------------------------------
  Maximum abs         0.001856      0.000618      0.000866      0.000000
--------------------------------------------------------------------------------


  Time to end of optimisation =      14.0333 seconds


  Peak dynamic memory used =       2.03 MB 


  Timing analysis for GULP :

--------------------------------------------------------------------------------
  Task / Subroutine                                          Time (Seconds)
--------------------------------------------------------------------------------
  Calculation of reciprocal space energy and derivatives          0.7789
  Calculation of real space energy and derivatives               11.7048
  Calculation and manipulation of Hessian matrix                  3.2147
  Global summation overhead                                       0.0011
--------------------------------------------------------------------------------
  Total CPU time                                                 14.0334
--------------------------------------------------------------------------------


  Job Finished at 15:50.38 11th June       2024                               

