********************************************************************************
*                       GENERAL UTILITY LATTICE PROGRAM                        *
*                                 Julian Gale                                  *
*                       Curtin Institute for Computation                       *
*                    School of Molecular and Life Sciences                     *
*                    Curtin University, Western Australia                      *
********************************************************************************
* Version = 6.0.0 * Last modified =  12th July 2021                            *
********************************************************************************
*  optimise     - perform optimisation run                                     *
*  conp         - constant pressure calculation                                *
*  nosymmetry   - turn off symmetry after initial structure generation         *
*  conjugate    - use conjugate gradients minimiser                            *
********************************************************************************

  Job Started  at 15:44.34 11th June       2024                               

  Number of CPUs =     1


  Total number of configurations input =      1

********************************************************************************
*  Input for Configuration =   1                                               *
********************************************************************************

  Formula = Al8Mg4O16                                                   

  Number of irreducible atoms/shells =      28


  Total number atoms/shells =      28

  Dimensionality = 3               :  Bulk   



  Cartesian lattice vectors (Angstroms) :

        6.772388   -3.910040    0.000000
        0.000000    7.820080    0.000000
        0.000000    0.000000    6.553345

  Cell parameters (Angstroms/Degrees):

  a =       7.8201    alpha =  90.0000
  b =       7.8201    beta  =  90.0000
  c =       6.5533    gamma = 120.0000

  Initial cell volume =         347.069148 Angs**3

  Temperature of configuration =   0.00     K 

  Pressure of configuration =       100.000 GPa 

  Fractional coordinates of asymmetric unit :

--------------------------------------------------------------------------------
   No.  Atomic       x           y          z         Charge      Occupancy
        Label      (Frac)      (Frac)     (Frac)        (e)         (Frac)  
--------------------------------------------------------------------------------
      1 Al    c    0.881982    0.118018    0.757534     3.00000    1.000000    
      2 Al    c    0.881982 *  0.763964 *  0.757534 *   3.00000    1.000000    
      3 Al    c    0.236036 *  0.118018 *  0.757534 *   3.00000    1.000000    
      4 Al    c    0.118018 *  0.881982 *  0.257534 *   3.00000    1.000000    
      5 Al    c    0.118018 *  0.236036 *  0.257534 *   3.00000    1.000000    
      6 Al    c    0.763964 *  0.881982 *  0.257534 *   3.00000    1.000000    
      7 Al    c    0.000000 *  0.000000 *  0.137455 *   3.00000    1.000000    
      8 Al    c    0.000000 *  0.000000 *  0.637455 *   3.00000    1.000000    
      9 Mg    c    0.000000 *  0.000000 *  0.348609 *   2.00000    1.000000    
     10 Mg    c    0.000000 *  0.000000 *  0.848609 *   2.00000    1.000000    
     11 Mg    c    0.333333 *  0.666667 *  0.280511 *   2.00000    1.000000    
     12 Mg    c    0.666667 *  0.333333 *  0.780511 *   2.00000    1.000000    
     13 O     c    0.574143 *  0.669812 *  0.423134 *  -2.00000    1.000000    
     14 O     c    0.330188 *  0.904331 *  0.423134 *  -2.00000    1.000000    
     15 O     c    0.095669 *  0.425857 *  0.423134 *  -2.00000    1.000000    
     16 O     c    0.425857 *  0.330188 *  0.923134 *  -2.00000    1.000000    
     17 O     c    0.669812 *  0.095669 *  0.923134 *  -2.00000    1.000000    
     18 O     c    0.904331 *  0.574143 *  0.923134 *  -2.00000    1.000000    
     19 O     c    0.330188 *  0.425857 *  0.423134 *  -2.00000    1.000000    
     20 O     c    0.095669 *  0.669812 *  0.423134 *  -2.00000    1.000000    
     21 O     c    0.574143 *  0.904331 *  0.423134 *  -2.00000    1.000000    
     22 O     c    0.669812 *  0.574143 *  0.923134 *  -2.00000    1.000000    
     23 O     c    0.904331 *  0.330188 *  0.923134 *  -2.00000    1.000000    
     24 O     c    0.425857 *  0.095669 *  0.923134 *  -2.00000    1.000000    
     25 O     c    0.333333 *  0.666667 *  0.729521 *  -2.00000    1.000000    
     26 O     c    0.666667 *  0.333333 *  0.229521 *  -2.00000    1.000000    
     27 O     c    0.333333 *  0.666667 *  0.450726 *  -2.00000    1.000000    
     28 O     c    0.666667 *  0.333333 *  0.950726 *  -2.00000    1.000000    
--------------------------------------------------------------------------------



********************************************************************************
*  General input information                                                   *
********************************************************************************

  Species output for all configurations : 

--------------------------------------------------------------------------------
  Species    Type    Atomic    Atomic    Charge       Radii (Angs)     Library
                     Number     Mass       (e)     Cova   Ionic  VDW   Symbol
--------------------------------------------------------------------------------
    Mg       Core       12      24.31   2.000000   1.100  0.000  1.640          
    Al       Core       13      26.98   3.000000   1.350  0.000  2.050          
    O        Core        8      16.00  -2.000000   0.730  0.000  1.360          
--------------------------------------------------------------------------------


  Lattice summation method               =    Ewald          (3-D)
                                         =    Parry          (2-D)
                                         =    Saunders et al (1-D)
  Accuracy factor for lattice sums       =   12.000


  Analytic derivatives to be used

  Time limit = Infinity

  Maximum range for interatomic potentials =    100000.000000 Angstroms

  General interatomic potentials :

--------------------------------------------------------------------------------
Atom  Types   Potential      Parameter       Value         Units   Cutoffs(Ang)
  1     2                                                            Min /  Max 
--------------------------------------------------------------------------------
O    c Mg   c Lennard       Lennard-Jones A  1.5000000    eV*Ang^m  0.000  6.000
                            Lennard-Jones B  0.0000000    eV*Ang^n  
                            Exponent m        12          None
                            Exponent n         6          None
--------------------------------------------------------------------------------
O    c Al   c Lennard       Lennard-Jones A  1.5000000    eV*Ang^m  0.000  6.000
                            Lennard-Jones B  0.0000000    eV*Ang^n  
                            Exponent m        12          None
                            Exponent n         6          None
--------------------------------------------------------------------------------
O    c O    c Lennard       Lennard-Jones A  1.5000000    eV*Ang^m  0.000  6.000
                            Lennard-Jones B  0.0000000    eV*Ang^n  
                            Exponent m        12          None
                            Exponent n         6          None
--------------------------------------------------------------------------------
Mg   c Mg   c Lennard       Lennard-Jones A  1.5000000    eV*Ang^m  0.000  6.000
                            Lennard-Jones B  0.0000000    eV*Ang^n  
                            Exponent m        12          None
                            Exponent n         6          None
--------------------------------------------------------------------------------
Mg   c Al   c Lennard       Lennard-Jones A  1.5000000    eV*Ang^m  0.000  6.000
                            Lennard-Jones B  0.0000000    eV*Ang^n  
                            Exponent m        12          None
                            Exponent n         6          None
--------------------------------------------------------------------------------
Al   c Al   c Lennard       Lennard-Jones A  1.5000000    eV*Ang^m  0.000  6.000
                            Lennard-Jones B  0.0000000    eV*Ang^n  
                            Exponent m        12          None
                            Exponent n         6          None
--------------------------------------------------------------------------------
O    c Mg   c Buckingham    Buckingham A     1428.5000    eV        0.000  7.000
                            Buckingham rho  0.29450000    Ang       
                            Buckingham C     0.0000000    eV*Ang^6  
--------------------------------------------------------------------------------
O    c Al   c Buckingham    Buckingham A     1114.9000    eV        0.000  7.000
                            Buckingham rho  0.31180000    Ang       
                            Buckingham C     0.0000000    eV*Ang^6  
--------------------------------------------------------------------------------
O    c O    c Buckingham    Buckingham A     2023.8000    eV        0.000  7.000
                            Buckingham rho  0.26740000    Ang       
                            Buckingham C     0.0000000    eV*Ang^6  
--------------------------------------------------------------------------------

********************************************************************************
*  Output for configuration   1                                                *
********************************************************************************


  Components of enthalpy : 

--------------------------------------------------------------------------------
  Interatomic potentials     =         160.36981156 eV    
  Monopole - monopole (real) =         382.31396569 eV    
  Monopole - monopole (recip)=        -233.65940849 eV    
  Monopole - monopole (total)=         148.65455720 eV    
  Pressure*volume            =         216.62185116 eV    
--------------------------------------------------------------------------------
  Total lattice enthalpy     =         525.64621993 eV    
--------------------------------------------------------------------------------
  Total lattice enthalpy     =           50716.8250 kJ/(mole unit cells)
--------------------------------------------------------------------------------


  Number of variables =       87

  Maximum number of calculations  =           850
  Maximum Hessian update interval =            10
  Maximum step size               =   1.000000000
  Maximum parameter tolerance     =   0.000010000
  Maximum function  tolerance     =   0.000010000
  Maximum gradient  tolerance     =   0.001000000
  Maximum gradient  component     =   0.010000000

  Cell parameters to be optimised using strains

  Conjugate gradient optimiser to be used

  Lower half triangular hessian to be used

  Minimiser to switch to RFO
  When gradient norm is less than     0.010000

  Start of bulk optimisation :

  Cycle:      0 Energy:       525.646220  Gnorm:     35.262184  CPU:    0.039
  Cycle:      1 Energy:       -81.965289  Gnorm:     16.724115  CPU:    0.144
  Cycle:      2 Energy:      -198.606957  Gnorm:     10.331615  CPU:    0.207
  Cycle:      3 Energy:      -293.343022  Gnorm:      8.663227  CPU:    0.282
  Cycle:      4 Energy:      -388.436318  Gnorm:      7.788296  CPU:    0.346
  Cycle:      5 Energy:      -442.776617  Gnorm:      6.981371  CPU:    0.402
  Cycle:      6 Energy:      -478.390352  Gnorm:      6.650820  CPU:    0.476
  Cycle:      7 Energy:      -506.584752  Gnorm:      4.914967  CPU:    0.551
  Cycle:      8 Energy:      -542.247152  Gnorm:      3.977003  CPU:    0.642
  Cycle:      9 Energy:      -558.914084  Gnorm:      3.664591  CPU:    0.709
  Cycle:     10 Energy:      -566.394883  Gnorm:      1.919152  CPU:    0.761
  Cycle:     11 Energy:      -577.659739  Gnorm:      2.303861  CPU:    0.826
  Cycle:     12 Energy:      -582.810488  Gnorm:      1.877038  CPU:    0.883
  Cycle:     13 Energy:      -589.561443  Gnorm:      2.086453  CPU:    0.949
  Cycle:     14 Energy:      -594.141194  Gnorm:      1.732136  CPU:    1.007
  Cycle:     15 Energy:      -599.275190  Gnorm:      1.302277  CPU:    1.078
  Cycle:     16 Energy:      -602.102904  Gnorm:      1.029554  CPU:    1.149
  Cycle:     17 Energy:      -603.347883  Gnorm:      1.112680  CPU:    1.208
  Cycle:     18 Energy:      -604.994077  Gnorm:      1.027049  CPU:    1.282
  Cycle:     19 Energy:      -605.917748  Gnorm:      0.896461  CPU:    1.337
  Cycle:     20 Energy:      -606.470246  Gnorm:      0.743300  CPU:    1.395
  Cycle:     21 Energy:      -607.366797  Gnorm:      0.728567  CPU:    1.465
  Cycle:     22 Energy:      -607.988255  Gnorm:      0.760762  CPU:    1.520
  Cycle:     23 Energy:      -608.664924  Gnorm:      0.727596  CPU:    1.587
  Cycle:     24 Energy:      -610.572488  Gnorm:      0.917715  CPU:    1.654
  Cycle:     25 Energy:      -611.977204  Gnorm:      1.135913  CPU:    1.708
  Cycle:     26 Energy:      -612.908711  Gnorm:      0.940275  CPU:    1.762
  Cycle:     27 Energy:      -614.213456  Gnorm:      0.825705  CPU:    1.829
  Cycle:     28 Energy:      -615.302553  Gnorm:      0.735752  CPU:    1.896
  Cycle:     29 Energy:      -616.190456  Gnorm:      0.764967  CPU:    1.962
  Cycle:     30 Energy:      -616.609752  Gnorm:      0.585240  CPU:    2.017
  Cycle:     31 Energy:      -617.323670  Gnorm:      0.784973  CPU:    2.085
  Cycle:     32 Energy:      -618.156288  Gnorm:      0.682611  CPU:    2.152
  Cycle:     33 Energy:      -618.820859  Gnorm:      0.825290  CPU:    2.209
  Cycle:     34 Energy:      -619.580456  Gnorm:      0.878297  CPU:    2.277
  Cycle:     35 Energy:      -620.558221  Gnorm:      0.815752  CPU:    2.346
  Cycle:     36 Energy:      -621.520015  Gnorm:      0.855225  CPU:    2.413
  Cycle:     37 Energy:      -622.416462  Gnorm:      0.955057  CPU:    2.470
  Cycle:     38 Energy:      -623.543858  Gnorm:      0.795216  CPU:    2.538
  Cycle:     39 Energy:      -624.360947  Gnorm:      0.862528  CPU:    2.607
  Cycle:     40 Energy:      -624.808284  Gnorm:      0.627491  CPU:    2.663
  Cycle:     41 Energy:      -625.502934  Gnorm:      0.768249  CPU:    2.730
  Cycle:     42 Energy:      -626.267997  Gnorm:      0.636222  CPU:    2.785
  Cycle:     43 Energy:      -626.992088  Gnorm:      0.736560  CPU:    2.855
  Cycle:     44 Energy:      -627.824796  Gnorm:      0.891551  CPU:    2.927
  Cycle:     45 Energy:      -628.666257  Gnorm:      0.807431  CPU:    2.987
  Cycle:     46 Energy:      -629.815873  Gnorm:      0.882471  CPU:    3.060
  Cycle:     47 Energy:      -631.196386  Gnorm:      1.084897  CPU:    3.153
  Cycle:     48 Energy:      -632.254579  Gnorm:      0.848712  CPU:    3.240
  Cycle:     49 Energy:      -633.605339  Gnorm:      0.959105  CPU:    3.350
  Cycle:     50 Energy:      -634.153768  Gnorm:      0.725479  CPU:    3.459
  Cycle:     51 Energy:      -635.047729  Gnorm:      0.734719  CPU:    3.569
  Cycle:     52 Energy:      -635.848633  Gnorm:      0.663656  CPU:    3.659
  Cycle:     53 Energy:      -636.323479  Gnorm:      0.654945  CPU:    3.753
  Cycle:     54 Energy:      -636.761243  Gnorm:      0.521527  CPU:    3.863
  Cycle:     55 Energy:      -637.198404  Gnorm:      0.596482  CPU:    3.978
  Cycle:     56 Energy:      -637.624173  Gnorm:      0.572862  CPU:    4.074
  Cycle:     57 Energy:      -637.905607  Gnorm:      0.470032  CPU:    4.166
  Cycle:     58 Energy:      -638.174540  Gnorm:      0.493616  CPU:    4.284
  Cycle:     59 Energy:      -638.667049  Gnorm:      0.475363  CPU:    4.455
  Cycle:     60 Energy:      -638.824207  Gnorm:      0.347053  CPU:    4.604
  Cycle:     61 Energy:      -638.934567  Gnorm:      0.290573  CPU:    4.786
  Cycle:     62 Energy:      -639.095629  Gnorm:      0.309447  CPU:    4.965
  Cycle:     63 Energy:      -639.211039  Gnorm:      0.338735  CPU:    5.110
  Cycle:     64 Energy:      -639.312533  Gnorm:      0.271655  CPU:    5.259
  Cycle:     65 Energy:      -639.423435  Gnorm:      0.299335  CPU:    5.446
  Cycle:     66 Energy:      -639.550903  Gnorm:      0.265931  CPU:    5.627
  Cycle:     67 Energy:      -639.664259  Gnorm:      0.300793  CPU:    5.807
  Cycle:     68 Energy:      -639.747173  Gnorm:      0.280829  CPU:    5.952
  Cycle:     69 Energy:      -639.889104  Gnorm:      0.260354  CPU:    6.143
  Cycle:     70 Energy:      -639.957106  Gnorm:      0.250602  CPU:    6.288
  Cycle:     71 Energy:      -640.013577  Gnorm:      0.231539  CPU:    6.432
  Cycle:     72 Energy:      -640.112322  Gnorm:      0.201677  CPU:    6.621
  Cycle:     73 Energy:      -640.178598  Gnorm:      0.253615  CPU:    6.766
  Cycle:     74 Energy:      -640.242717  Gnorm:      0.258550  CPU:    6.911
  Cycle:     75 Energy:      -640.354666  Gnorm:      0.253428  CPU:    7.090
  Cycle:     76 Energy:      -640.475238  Gnorm:      0.344179  CPU:    7.268
  Cycle:     77 Energy:      -640.619872  Gnorm:      0.339147  CPU:    7.411
  Cycle:     78 Energy:      -640.764859  Gnorm:      0.369648  CPU:    7.554
  Cycle:     79 Energy:      -640.932475  Gnorm:      0.381570  CPU:    7.730
  Cycle:     80 Energy:      -641.048276  Gnorm:      0.317096  CPU:    7.871
  Cycle:     81 Energy:      -641.141652  Gnorm:      0.279061  CPU:    8.046
  Cycle:     82 Energy:      -641.293431  Gnorm:      0.256395  CPU:    8.222
  Cycle:     83 Energy:      -641.394632  Gnorm:      0.214241  CPU:    8.363
  Cycle:     84 Energy:      -641.461851  Gnorm:      0.217058  CPU:    8.538
  Cycle:     85 Energy:      -641.512796  Gnorm:      0.202653  CPU:    8.678
  Cycle:     86 Energy:      -641.553154  Gnorm:      0.186253  CPU:    8.856
  Cycle:     87 Energy:      -641.606713  Gnorm:      0.167743  CPU:    9.034
  Cycle:     88 Energy:      -641.662636  Gnorm:      0.154399  CPU:    9.211
  Cycle:     89 Energy:      -641.712045  Gnorm:      0.205749  CPU:    9.388
  Cycle:     90 Energy:      -641.734248  Gnorm:      0.140134  CPU:    9.527
  Cycle:     91 Energy:      -641.763804  Gnorm:      0.113439  CPU:    9.708
  Cycle:     92 Energy:      -641.789776  Gnorm:      0.122842  CPU:    9.885
  Cycle:     93 Energy:      -641.811143  Gnorm:      0.129166  CPU:   10.024
  Cycle:     94 Energy:      -641.830308  Gnorm:      0.142912  CPU:   10.176
  Cycle:     95 Energy:      -641.858626  Gnorm:      0.142984  CPU:   10.373
  Cycle:     96 Energy:      -641.894685  Gnorm:      0.145852  CPU:   10.552
  Cycle:     97 Energy:      -641.935516  Gnorm:      0.171417  CPU:   10.731
  Cycle:     98 Energy:      -641.982030  Gnorm:      0.208043  CPU:   10.872
  Cycle:     99 Energy:      -642.021266  Gnorm:      0.208228  CPU:   11.017
  Cycle:    100 Energy:      -642.055327  Gnorm:      0.192696  CPU:   11.162
  Cycle:    101 Energy:      -642.102900  Gnorm:      0.192963  CPU:   11.345
  Cycle:    102 Energy:      -642.154595  Gnorm:      0.163081  CPU:   11.487
  Cycle:    103 Energy:      -642.207112  Gnorm:      0.168052  CPU:   11.670
  Cycle:    104 Energy:      -642.254039  Gnorm:      0.184880  CPU:   11.812
  Cycle:    105 Energy:      -642.320846  Gnorm:      0.265950  CPU:   11.997
  Cycle:    106 Energy:      -642.432969  Gnorm:      0.374682  CPU:   12.178
  Cycle:    107 Energy:      -642.661409  Gnorm:      0.514899  CPU:   12.368
  Cycle:    108 Energy:      -643.048114  Gnorm:      0.752340  CPU:   12.523
  Cycle:    109 Energy:      -643.148770  Gnorm:      0.603919  CPU:   12.717
  Cycle:    110 Energy:      -643.500707  Gnorm:      0.603992  CPU:   12.906
  Cycle:    111 Energy:      -643.856747  Gnorm:      0.464163  CPU:   13.092
  Cycle:    112 Energy:      -644.256274  Gnorm:      0.471665  CPU:   13.283
  Cycle:    113 Energy:      -644.499216  Gnorm:      0.462208  CPU:   13.436
  Cycle:    114 Energy:      -644.676031  Gnorm:      0.295828  CPU:   13.590
  Cycle:    115 Energy:      -644.824055  Gnorm:      0.324183  CPU:   13.778
  Cycle:    116 Energy:      -645.019044  Gnorm:      0.390559  CPU:   13.967
  Cycle:    117 Energy:      -645.273247  Gnorm:      0.446114  CPU:   14.161
  Cycle:    118 Energy:      -645.644233  Gnorm:      0.580076  CPU:   14.353
  Cycle:    119 Energy:      -646.035467  Gnorm:      0.603092  CPU:   14.509
  Cycle:    120 Energy:      -646.297646  Gnorm:      0.468899  CPU:   14.662
  Cycle:    121 Energy:      -646.543290  Gnorm:      0.356447  CPU:   14.854
  Cycle:    122 Energy:      -646.708309  Gnorm:      0.338727  CPU:   15.048
  Cycle:    123 Energy:      -646.833984  Gnorm:      0.297066  CPU:   15.201
  Cycle:    124 Energy:      -646.932197  Gnorm:      0.272835  CPU:   15.397
  Cycle:    125 Energy:      -647.033939  Gnorm:      0.310115  CPU:   15.586
  Cycle:    126 Energy:      -647.172409  Gnorm:      0.285541  CPU:   15.788
  Cycle:    127 Energy:      -647.271663  Gnorm:      0.232822  CPU:   15.946
  Cycle:    128 Energy:      -647.371401  Gnorm:      0.225573  CPU:   16.138
  Cycle:    129 Energy:      -647.446767  Gnorm:      0.228239  CPU:   16.292
  Cycle:    130 Energy:      -647.480594  Gnorm:      0.156721  CPU:   16.447
  Cycle:    131 Energy:      -647.510623  Gnorm:      0.145312  CPU:   16.640
  Cycle:    132 Energy:      -647.538483  Gnorm:      0.153965  CPU:   16.833
  Cycle:    133 Energy:      -647.569416  Gnorm:      0.159827  CPU:   17.029
  Cycle:    134 Energy:      -647.598694  Gnorm:      0.124358  CPU:   17.184
  Cycle:    135 Energy:      -647.616926  Gnorm:      0.129394  CPU:   17.378
  Cycle:    136 Energy:      -647.639943  Gnorm:      0.126699  CPU:   17.533
  Cycle:    137 Energy:      -647.663401  Gnorm:      0.106725  CPU:   17.725
  Cycle:    138 Energy:      -647.687954  Gnorm:      0.107998  CPU:   17.921
  Cycle:    139 Energy:      -647.706182  Gnorm:      0.144818  CPU:   18.077
  Cycle:    140 Energy:      -647.718197  Gnorm:      0.082631  CPU:   18.232
  Cycle:    141 Energy:      -647.728855  Gnorm:      0.085639  CPU:   18.387
  Cycle:    142 Energy:      -647.737262  Gnorm:      0.086793  CPU:   18.542
  Cycle:    143 Energy:      -647.747822  Gnorm:      0.089592  CPU:   18.733
  Cycle:    144 Energy:      -647.756894  Gnorm:      0.082306  CPU:   18.888
  Cycle:    145 Energy:      -647.766994  Gnorm:      0.095361  CPU:   19.043
  Cycle:    146 Energy:      -647.779966  Gnorm:      0.097226  CPU:   19.196
  Cycle:    147 Energy:      -647.791419  Gnorm:      0.077554  CPU:   19.352
  Cycle:    148 Energy:      -647.804896  Gnorm:      0.077813  CPU:   19.511
  Cycle:    149 Energy:      -647.818925  Gnorm:      0.119214  CPU:   19.702
  Cycle:    150 Energy:      -647.829040  Gnorm:      0.069716  CPU:   19.857
  Cycle:    151 Energy:      -647.835764  Gnorm:      0.084120  CPU:   20.010
  Cycle:    152 Energy:      -647.842465  Gnorm:      0.066431  CPU:   20.165
  Cycle:    153 Energy:      -647.851124  Gnorm:      0.072915  CPU:   20.359
  Cycle:    154 Energy:      -647.857881  Gnorm:      0.068232  CPU:   20.516
  Cycle:    155 Energy:      -647.863476  Gnorm:      0.068421  CPU:   20.671
  Cycle:    156 Energy:      -647.869356  Gnorm:      0.065075  CPU:   20.861
  Cycle:    157 Energy:      -647.874790  Gnorm:      0.062778  CPU:   21.053
  Cycle:    158 Energy:      -647.880848  Gnorm:      0.067260  CPU:   21.210
  Cycle:    159 Energy:      -647.886452  Gnorm:      0.067139  CPU:   21.364
  Cycle:    160 Energy:      -647.890637  Gnorm:      0.061943  CPU:   21.519
  Cycle:    161 Energy:      -647.894557  Gnorm:      0.054187  CPU:   21.675
  Cycle:    162 Energy:      -647.899381  Gnorm:      0.061724  CPU:   21.832
  Cycle:    163 Energy:      -647.904669  Gnorm:      0.058326  CPU:   21.986
  Cycle:    164 Energy:      -647.908427  Gnorm:      0.058064  CPU:   22.140
  Cycle:    165 Energy:      -647.914263  Gnorm:      0.062148  CPU:   22.334
  Cycle:    166 Energy:      -647.919832  Gnorm:      0.054040  CPU:   22.489
  Cycle:    167 Energy:      -647.925140  Gnorm:      0.063717  CPU:   22.682
  Cycle:    168 Energy:      -647.930361  Gnorm:      0.056410  CPU:   22.840
  Cycle:    169 Energy:      -647.938024  Gnorm:      0.103710  CPU:   22.996
  Cycle:    170 Energy:      -647.944092  Gnorm:      0.052993  CPU:   23.151
  Cycle:    171 Energy:      -647.947625  Gnorm:      0.060902  CPU:   23.307
  Cycle:    172 Energy:      -647.952058  Gnorm:      0.050061  CPU:   23.462
  Cycle:    173 Energy:      -647.955385  Gnorm:      0.052816  CPU:   23.619
  Cycle:    174 Energy:      -647.959791  Gnorm:      0.053250  CPU:   23.775
  Cycle:    175 Energy:      -647.963510  Gnorm:      0.046655  CPU:   23.932
  Cycle:    176 Energy:      -647.967054  Gnorm:      0.055523  CPU:   24.130
  Cycle:    177 Energy:      -647.970286  Gnorm:      0.047782  CPU:   24.288
  Cycle:    178 Energy:      -647.973109  Gnorm:      0.045842  CPU:   24.479
  Cycle:    179 Energy:      -647.976131  Gnorm:      0.045957  CPU:   24.671
  Cycle:    180 Energy:      -647.978155  Gnorm:      0.045270  CPU:   24.826
  Cycle:    181 Energy:      -647.980512  Gnorm:      0.039030  CPU:   24.986
  Cycle:    182 Energy:      -647.983464  Gnorm:      0.053852  CPU:   25.143
  Cycle:    183 Energy:      -647.986395  Gnorm:      0.043242  CPU:   25.297
  Cycle:    184 Energy:      -647.989138  Gnorm:      0.044892  CPU:   25.452
  Cycle:    185 Energy:      -647.992049  Gnorm:      0.049631  CPU:   25.607
  Cycle:    186 Energy:      -647.994892  Gnorm:      0.042174  CPU:   25.764
  Cycle:    187 Energy:      -647.998073  Gnorm:      0.050821  CPU:   25.957
  Cycle:    188 Energy:      -648.000989  Gnorm:      0.048980  CPU:   26.113
  Cycle:    189 Energy:      -648.004479  Gnorm:      0.062434  CPU:   26.268
  Cycle:    190 Energy:      -648.007101  Gnorm:      0.042760  CPU:   26.423
  Cycle:    191 Energy:      -648.009195  Gnorm:      0.040545  CPU:   26.577
  Cycle:    192 Energy:      -648.011289  Gnorm:      0.036704  CPU:   26.732
  Cycle:    193 Energy:      -648.013040  Gnorm:      0.041096  CPU:   26.886
  Cycle:    194 Energy:      -648.015693  Gnorm:      0.043800  CPU:   27.040
  Cycle:    195 Energy:      -648.018017  Gnorm:      0.037664  CPU:   27.195
  Cycle:    196 Energy:      -648.020729  Gnorm:      0.048139  CPU:   27.349
  Cycle:    197 Energy:      -648.023816  Gnorm:      0.041323  CPU:   27.504
  Cycle:    198 Energy:      -648.026089  Gnorm:      0.036270  CPU:   27.658
  Cycle:    199 Energy:      -648.028350  Gnorm:      0.048763  CPU:   27.812
  Cycle:    200 Energy:      -648.030236  Gnorm:      0.035632  CPU:   27.967
  Cycle:    201 Energy:      -648.031804  Gnorm:      0.038163  CPU:   28.122
  Cycle:    202 Energy:      -648.033899  Gnorm:      0.043843  CPU:   28.280
  Cycle:    203 Energy:      -648.036542  Gnorm:      0.039329  CPU:   28.438
  Cycle:    204 Energy:      -648.038401  Gnorm:      0.036242  CPU:   28.596
  Cycle:    205 Energy:      -648.040488  Gnorm:      0.037752  CPU:   28.756
  Cycle:    206 Energy:      -648.042435  Gnorm:      0.033045  CPU:   28.914
  Cycle:    207 Energy:      -648.043896  Gnorm:      0.035528  CPU:   29.072
  Cycle:    208 Energy:      -648.045802  Gnorm:      0.037217  CPU:   29.226
  Cycle:    209 Energy:      -648.047885  Gnorm:      0.045015  CPU:   29.381
  Cycle:    210 Energy:      -648.049600  Gnorm:      0.036073  CPU:   29.539
  Cycle:    211 Energy:      -648.051252  Gnorm:      0.037251  CPU:   29.732
  Cycle:    212 Energy:      -648.052618  Gnorm:      0.029678  CPU:   29.889
  Cycle:    213 Energy:      -648.054152  Gnorm:      0.035488  CPU:   30.047
  Cycle:    214 Energy:      -648.055896  Gnorm:      0.034148  CPU:   30.202
  Cycle:    215 Energy:      -648.057441  Gnorm:      0.035021  CPU:   30.357
  Cycle:    216 Energy:      -648.059530  Gnorm:      0.038793  CPU:   30.511
  Cycle:    217 Energy:      -648.061452  Gnorm:      0.033695  CPU:   30.666
  Cycle:    218 Energy:      -648.062924  Gnorm:      0.030613  CPU:   30.826
  Cycle:    219 Energy:      -648.064236  Gnorm:      0.039804  CPU:   31.021
  Cycle:    220 Energy:      -648.065423  Gnorm:      0.030374  CPU:   31.176
  Cycle:    221 Energy:      -648.066589  Gnorm:      0.032355  CPU:   31.332
  Cycle:    222 Energy:      -648.068129  Gnorm:      0.036513  CPU:   31.487
  Cycle:    223 Energy:      -648.069982  Gnorm:      0.033226  CPU:   31.642
  Cycle:    224 Energy:      -648.071334  Gnorm:      0.029921  CPU:   31.797
  Cycle:    225 Energy:      -648.072973  Gnorm:      0.032771  CPU:   31.953
  Cycle:    226 Energy:      -648.074378  Gnorm:      0.026652  CPU:   32.112
  Cycle:    227 Energy:      -648.075559  Gnorm:      0.031995  CPU:   32.307
  Cycle:    228 Energy:      -648.077012  Gnorm:      0.030993  CPU:   32.465
  Cycle:    229 Energy:      -648.078402  Gnorm:      0.042860  CPU:   32.621
  Cycle:    230 Energy:      -648.079704  Gnorm:      0.029411  CPU:   32.779
  Cycle:    231 Energy:      -648.081021  Gnorm:      0.030472  CPU:   32.934
  Cycle:    232 Energy:      -648.082082  Gnorm:      0.025330  CPU:   33.091
  Cycle:    233 Energy:      -648.083296  Gnorm:      0.030910  CPU:   33.285
  Cycle:    234 Energy:      -648.084626  Gnorm:      0.029497  CPU:   33.441
  Cycle:    235 Energy:      -648.085627  Gnorm:      0.031029  CPU:   33.597
  Cycle:    236 Energy:      -648.086979  Gnorm:      0.033508  CPU:   33.790
  Cycle:    237 Energy:      -648.088401  Gnorm:      0.028574  CPU:   33.945
  Cycle:    238 Energy:      -648.089443  Gnorm:      0.026335  CPU:   34.099
  Cycle:    239 Energy:      -648.090423  Gnorm:      0.031743  CPU:   34.254
  Cycle:    240 Energy:      -648.091323  Gnorm:      0.025374  CPU:   34.410
  Cycle:    241 Energy:      -648.092173  Gnorm:      0.026950  CPU:   34.566
  Cycle:    242 Energy:      -648.093282  Gnorm:      0.032101  CPU:   34.721
  Cycle:    243 Energy:      -648.094474  Gnorm:      0.027862  CPU:   34.878
  Cycle:    244 Energy:      -648.095360  Gnorm:      0.025406  CPU:   35.032
  Cycle:    245 Energy:      -648.096687  Gnorm:      0.029313  CPU:   35.185
  Cycle:    246 Energy:      -648.097716  Gnorm:      0.023962  CPU:   35.341
  Cycle:    247 Energy:      -648.098543  Gnorm:      0.027633  CPU:   35.532
  Cycle:    248 Energy:      -648.099612  Gnorm:      0.027004  CPU:   35.685
  Cycle:    249 Energy:      -648.100579  Gnorm:      0.034412  CPU:   35.838
  Cycle:    250 Energy:      -648.101460  Gnorm:      0.027246  CPU:   35.995
  Cycle:    251 Energy:      -648.102348  Gnorm:      0.026432  CPU:   36.156
  Cycle:    252 Energy:      -648.103148  Gnorm:      0.021776  CPU:   36.317
  Cycle:    253 Energy:      -648.104069  Gnorm:      0.027124  CPU:   36.476
  Cycle:    254 Energy:      -648.105257  Gnorm:      0.022767  CPU:   36.631
  Cycle:    255 Energy:      -648.106005  Gnorm:      0.024308  CPU:   36.786
  Cycle:    256 Energy:      -648.107087  Gnorm:      0.027098  CPU:   36.939
  Cycle:    257 Energy:      -648.107950  Gnorm:      0.021952  CPU:   37.093
  Cycle:    258 Energy:      -648.108733  Gnorm:      0.019829  CPU:   37.246
  Cycle:    259 Energy:      -648.110972  Gnorm:      0.066055  CPU:   37.436
  Cycle:    260 Energy:      -648.112816  Gnorm:      0.019797  CPU:   37.589
  Cycle:    261 Energy:      -648.113425  Gnorm:      0.019617  CPU:   37.745
  Cycle:    262 Energy:      -648.113994  Gnorm:      0.022529  CPU:   37.899
  Cycle:    263 Energy:      -648.114628  Gnorm:      0.023635  CPU:   38.052
  Cycle:    264 Energy:      -648.115461  Gnorm:      0.024866  CPU:   38.206
  Cycle:    265 Energy:      -648.116116  Gnorm:      0.021328  CPU:   38.361
  Cycle:    266 Energy:      -648.116786  Gnorm:      0.021221  CPU:   38.520
  Cycle:    267 Energy:      -648.117489  Gnorm:      0.021752  CPU:   38.678
  Cycle:    268 Energy:      -648.118321  Gnorm:      0.021008  CPU:   38.872
  Cycle:    269 Energy:      -648.118870  Gnorm:      0.021264  CPU:   39.030
  Cycle:    270 Energy:      -648.119353  Gnorm:      0.020397  CPU:   39.187
  Cycle:    271 Energy:      -648.120013  Gnorm:      0.022788  CPU:   39.382
  Cycle:    272 Energy:      -648.120598  Gnorm:      0.020966  CPU:   39.542
  Cycle:    273 Energy:      -648.121196  Gnorm:      0.020386  CPU:   39.702
  Cycle:    274 Energy:      -648.121682  Gnorm:      0.020225  CPU:   39.858
  Cycle:    275 Energy:      -648.122284  Gnorm:      0.021938  CPU:   40.015
  Cycle:    276 Energy:      -648.122868  Gnorm:      0.018624  CPU:   40.173
  Cycle:    277 Energy:      -648.123389  Gnorm:      0.015961  CPU:   40.333
  Cycle:    278 Energy:      -648.123816  Gnorm:      0.016659  CPU:   40.488
  Cycle:    279 Energy:      -648.124551  Gnorm:      0.035986  CPU:   40.645
  Cycle:    280 Energy:      -648.125235  Gnorm:      0.015918  CPU:   40.804
  Cycle:    281 Energy:      -648.125624  Gnorm:      0.015204  CPU:   40.959
  Cycle:    282 Energy:      -648.126065  Gnorm:      0.017933  CPU:   41.112
  Cycle:    283 Energy:      -648.126471  Gnorm:      0.020291  CPU:   41.266
  Cycle:    284 Energy:      -648.126966  Gnorm:      0.018334  CPU:   41.419
  Cycle:    285 Energy:      -648.127387  Gnorm:      0.016987  CPU:   41.572
  Cycle:    286 Energy:      -648.127845  Gnorm:      0.017118  CPU:   41.726
  Cycle:    287 Energy:      -648.128281  Gnorm:      0.018710  CPU:   41.880
  Cycle:    288 Energy:      -648.128749  Gnorm:      0.016737  CPU:   42.038
  Cycle:    289 Energy:      -648.129058  Gnorm:      0.017080  CPU:   42.192
  Cycle:    290 Energy:      -648.129340  Gnorm:      0.016296  CPU:   42.346
  Cycle:    291 Energy:      -648.129744  Gnorm:      0.018239  CPU:   42.502
  Cycle:    292 Energy:      -648.130135  Gnorm:      0.016605  CPU:   42.657
  Cycle:    293 Energy:      -648.130521  Gnorm:      0.017081  CPU:   42.812
  Cycle:    294 Energy:      -648.130849  Gnorm:      0.015526  CPU:   42.966
  Cycle:    295 Energy:      -648.131189  Gnorm:      0.016135  CPU:   43.159
  Cycle:    296 Energy:      -648.131555  Gnorm:      0.014745  CPU:   43.316
  Cycle:    297 Energy:      -648.131878  Gnorm:      0.012232  CPU:   43.512
  Cycle:    298 Energy:      -648.132151  Gnorm:      0.012785  CPU:   43.670
  Cycle:    299 Energy:      -648.132751  Gnorm:      0.033652  CPU:   43.828
  Cycle:    300 Energy:      -648.133291  Gnorm:      0.012062  CPU:   43.986
  Cycle:    301 Energy:      -648.133538  Gnorm:      0.011722  CPU:   44.144
  Cycle:    302 Energy:      -648.133785  Gnorm:      0.014238  CPU:   44.302
  Cycle:    303 Energy:      -648.134005  Gnorm:      0.014664  CPU:   44.460
  Cycle:    304 Energy:      -648.134291  Gnorm:      0.013714  CPU:   44.618
  Cycle:    305 Energy:      -648.134559  Gnorm:      0.013427  CPU:   44.773
  Cycle:    306 Energy:      -648.134830  Gnorm:      0.013291  CPU:   44.928
  Cycle:    307 Energy:      -648.135087  Gnorm:      0.014919  CPU:   45.082
  Cycle:    308 Energy:      -648.135360  Gnorm:      0.013424  CPU:   45.236
  Cycle:    309 Energy:      -648.135539  Gnorm:      0.011827  CPU:   45.391
  Cycle:    310 Energy:      -648.135694  Gnorm:      0.013445  CPU:   45.545
  Cycle:    311 Energy:      -648.135926  Gnorm:      0.013686  CPU:   45.699
  Cycle:    312 Energy:      -648.136180  Gnorm:      0.012057  CPU:   45.854
  Cycle:    313 Energy:      -648.136443  Gnorm:      0.013451  CPU:   46.008
  Cycle:    314 Energy:      -648.136644  Gnorm:      0.011676  CPU:   46.164
  Cycle:    315 Energy:      -648.136805  Gnorm:      0.011536  CPU:   46.321
  Cycle:    316 Energy:      -648.137002  Gnorm:      0.011783  CPU:   46.476
  Cycle:    317 Energy:      -648.137160  Gnorm:      0.009601  CPU:   46.630
  ** Hessian has required structure
  Cycle:    318 Energy:      -648.141772  Gnorm:      0.005247  CPU:   47.035
  ** Hessian has required structure
  Cycle:    319 Energy:      -648.143800  Gnorm:      0.002198  CPU:   47.245
  ** Hessian has required structure
  Cycle:    320 Energy:      -648.143822  Gnorm:      0.000278  CPU:   47.418
  ** Hessian has required structure


  **** Optimisation achieved ****


  Final enthalpy =    -648.14382261 eV      
  Final Gnorm    =       0.00004107

  Components of enthalpy : 

--------------------------------------------------------------------------------
  Interatomic potentials     =         223.29339285 eV    
  Monopole - monopole (real) =        -509.53763547 eV    
  Monopole - monopole (recip)=        -489.87227522 eV    
  Monopole - monopole (total)=        -999.40991069 eV    
  Pressure*volume            =         127.97269522 eV    
--------------------------------------------------------------------------------
  Total lattice enthalpy     =        -648.14382261 eV    
--------------------------------------------------------------------------------
  Total lattice enthalpy     =          -62535.9711 kJ/(mole unit cells)
--------------------------------------------------------------------------------

  Final fractional coordinates of atoms :

--------------------------------------------------------------------------------
   No.  Atomic        x           y          z          Radius
        Label       (Frac)      (Frac)     (Frac)       (Angs) 
--------------------------------------------------------------------------------
     1  Al    c     0.881982    0.118018    0.757534    0.000000
     2  Al    c     0.816268    0.362990    0.737145    0.000000
     3  Al    c     0.323353    0.872438    0.734721    0.000000
     4  Al    c     0.036326    0.613505    0.238484    0.000000
     5  Al    c     0.142701    0.371355    0.323227    0.000000
     6  Al    c     0.635465    0.858535    0.329688    0.000000
     7  Al    c     0.938198    0.858673    0.047116    0.000000
     8  Al    c     0.250662    0.126271    0.595388    0.000000
     9  Mg    c     0.511104    0.125318    0.216757    0.000000
    10  Mg    c     0.744799    0.609804    0.596808    0.000000
    11  Mg    c     0.449628    0.378869    0.051910    0.000000
    12  Mg    c     0.385371    0.613973    0.813144    0.000000
    13  O     c     0.749429    0.803436    0.670108    0.000000
    14  O     c     0.132991    0.925478    0.421599    0.000000
    15  O     c     0.886041    0.305451    0.469511    0.000000
    16  O     c     0.163439    0.105354    0.933454    0.000000
    17  O     c     0.641779    0.905889    0.966700    0.000000
    18  O     c     0.764462    0.435460    0.986906    0.000000
    19  O     c     0.985218    0.115001    0.409151    0.000000
    20  O     c     0.538406    0.321638    0.444571    0.000000
    21  O     c     0.512570    0.932621    0.467119    0.000000
    22  O     c     0.659013    0.638132    0.171190    0.000000
    23  O     c     0.061948    0.330145    0.964954    0.000000
    24  O     c     0.112221    0.797992    0.985353    0.000000
    25  O     c     0.075003    0.620738    0.614604    0.000000
    26  O     c     0.364894    0.425804    0.647364    0.000000
    27  O     c     0.285023    0.618113    0.238964    0.000000
    28  O     c     0.531192    0.114982    0.825831    0.000000
--------------------------------------------------------------------------------

  Final Cartesian lattice vectors (Angstroms) :

        4.798261   -4.812823   -0.940883
       -0.073659    9.483309    0.801938
       -0.520527    0.664610    4.655336


  Final cell parameters and derivatives :

--------------------------------------------------------------------------------
       a            6.860892 Angstrom     dE/de1(xx)     0.000236 eV/strain
       b            9.517441 Angstrom     dE/de2(yy)     0.000343 eV/strain
       c            4.731259 Angstrom     dE/de3(zz)     0.000327 eV/strain
       alpha       77.071932 Degrees      dE/de4(yz)    -0.000715 eV/strain
       beta       108.084476 Degrees      dE/de5(xz)     0.000440 eV/strain
       gamma      135.720176 Degrees      dE/de6(xy)    -0.001066 eV/strain
--------------------------------------------------------------------------------

  Primitive cell volume =           205.036445 Angs**3

  Density of cell =      4.608910 g/cm**3

  Non-primitive cell volume =           205.036445 Angs**3


  Final internal derivatives :

--------------------------------------------------------------------------------
   No.  Atomic          a             b             c           Radius
        Label          (eV)          (eV)          (eV)        (eV/Angs)
--------------------------------------------------------------------------------
      1 Al    c       0.000000      0.000000      0.000000      0.000000
      2 Al    c       0.000138     -0.000402      0.000052      0.000000
      3 Al    c       0.000171      0.000239      0.000039      0.000000
      4 Al    c      -0.000168     -0.000433     -0.000036      0.000000
      5 Al    c       0.000127     -0.000392      0.000037      0.000000
      6 Al    c      -0.000362      0.001379      0.000543      0.000000
      7 Al    c      -0.000252      0.000394     -0.000217      0.000000
      8 Al    c       0.000016     -0.000367      0.000007      0.000000
      9 Mg    c       0.000272     -0.000124     -0.000060      0.000000
     10 Mg    c      -0.000101     -0.000012     -0.000056      0.000000
     11 Mg    c       0.000117      0.000227      0.000200      0.000000
     12 Mg    c       0.000097     -0.000038      0.000066      0.000000
     13 O     c       0.000261     -0.000665     -0.000254      0.000000
     14 O     c      -0.000436      0.000945      0.000433      0.000000
     15 O     c      -0.000054      0.000365      0.000127      0.000000
     16 O     c       0.000716     -0.000484      0.000175      0.000000
     17 O     c      -0.000331      0.000078     -0.000354      0.000000
     18 O     c       0.000036      0.000094     -0.000087      0.000000
     19 O     c       0.000052      0.000215     -0.000052      0.000000
     20 O     c       0.000044      0.000140     -0.000029      0.000000
     21 O     c      -0.000493     -0.000822     -0.000628      0.000000
     22 O     c      -0.000174     -0.001094     -0.000209      0.000000
     23 O     c      -0.000153      0.000325      0.000071      0.000000
     24 O     c       0.000129     -0.000493      0.000117      0.000000
     25 O     c      -0.000064      0.000095     -0.000056      0.000000
     26 O     c      -0.000106     -0.000257      0.000111      0.000000
     27 O     c       0.000010      0.000597     -0.000061      0.000000
     28 O     c       0.000088     -0.000643     -0.000206      0.000000
--------------------------------------------------------------------------------
  Maximum abs         0.000716      0.001379      0.000628      0.000000
--------------------------------------------------------------------------------


  Time to end of optimisation =      47.5931 seconds


  Peak dynamic memory used =       2.03 MB 


  Timing analysis for GULP :

--------------------------------------------------------------------------------
  Task / Subroutine                                          Time (Seconds)
--------------------------------------------------------------------------------
  Calculation of reciprocal space energy and derivatives          0.9004
  Calculation of real space energy and derivatives               46.5266
  Calculation and manipulation of Hessian matrix                  0.0754
  Global summation overhead                                       0.0021
--------------------------------------------------------------------------------
  Total CPU time                                                 47.5931
--------------------------------------------------------------------------------


  Job Finished at 15:45.21 11th June       2024                               

