********************************************************************************
*                       GENERAL UTILITY LATTICE PROGRAM                        *
*                                 Julian Gale                                  *
*                       Curtin Institute for Computation                       *
*                    School of Molecular and Life Sciences                     *
*                    Curtin University, Western Australia                      *
********************************************************************************
* Version = 6.0.0 * Last modified =  12th July 2021                            *
********************************************************************************
*  optimise     - perform optimisation run                                     *
*  conp         - constant pressure calculation                                *
*  nosymmetry   - turn off symmetry after initial structure generation         *
*  conjugate    - use conjugate gradients minimiser                            *
********************************************************************************

  Job Started  at 15:46.34 11th June       2024                               

  Number of CPUs =     1


  Total number of configurations input =      1

********************************************************************************
*  Input for Configuration =   1                                               *
********************************************************************************

  Formula = Al8Mg4O16                                                   

  Number of irreducible atoms/shells =      28


  Total number atoms/shells =      28

  Dimensionality = 3               :  Bulk   



  Cartesian lattice vectors (Angstroms) :

        5.595408    0.000000    0.000000
        0.000000    7.517741    0.000000
        0.000000    0.000000    5.664413

  Cell parameters (Angstroms/Degrees):

  a =       5.5954    alpha =  90.0000
  b =       7.5177    beta  =  90.0000
  c =       5.6644    gamma =  90.0000

  Initial cell volume =         238.272565 Angs**3

  Temperature of configuration =   0.00     K 

  Pressure of configuration =       100.000 GPa 

  Fractional coordinates of asymmetric unit :

--------------------------------------------------------------------------------
   No.  Atomic       x           y          z         Charge      Occupancy
        Label      (Frac)      (Frac)     (Frac)        (e)         (Frac)  
--------------------------------------------------------------------------------
      1 Al    c    0.250000    0.250000    0.750000     3.00000    1.000000    
      2 Al    c    0.250000 *  0.750000 *  0.250000 *   3.00000    1.000000    
      3 Al    c    0.750000 *  0.250000 *  0.250000 *   3.00000    1.000000    
      4 Al    c    0.750000 *  0.750000 *  0.750000 *   3.00000    1.000000    
      5 Al    c    0.000000 *  0.000000 *  0.000000 *   3.00000    1.000000    
      6 Al    c    0.000000 *  0.500000 *  0.500000 *   3.00000    1.000000    
      7 Al    c    0.500000 *  0.000000 *  0.500000 *   3.00000    1.000000    
      8 Al    c    0.500000 *  0.500000 *  0.000000 *   3.00000    1.000000    
      9 Mg    c    0.000000 *  0.000000 *  0.500000 *   2.00000    1.000000    
     10 Mg    c    0.000000 *  0.500000 *  0.000000 *   2.00000    1.000000    
     11 Mg    c    0.500000 *  0.000000 *  0.000000 *   2.00000    1.000000    
     12 Mg    c    0.500000 *  0.500000 *  0.500000 *   2.00000    1.000000    
     13 O     c    0.250000 *  0.466692 *  0.250000 *  -2.00000    1.000000    
     14 O     c    0.750000 *  0.533308 *  0.250000 *  -2.00000    1.000000    
     15 O     c    0.250000 *  0.966692 *  0.750000 *  -2.00000    1.000000    
     16 O     c    0.750000 *  0.033308 *  0.750000 *  -2.00000    1.000000    
     17 O     c    0.750000 *  0.466692 *  0.750000 *  -2.00000    1.000000    
     18 O     c    0.250000 *  0.533308 *  0.750000 *  -2.00000    1.000000    
     19 O     c    0.750000 *  0.966692 *  0.250000 *  -2.00000    1.000000    
     20 O     c    0.250000 *  0.033308 *  0.250000 *  -2.00000    1.000000    
     21 O     c    0.000000 *  0.000000 *  0.187693 *  -2.00000    1.000000    
     22 O     c    0.000000 *  0.000000 *  0.812307 *  -2.00000    1.000000    
     23 O     c    0.000000 *  0.500000 *  0.687693 *  -2.00000    1.000000    
     24 O     c    0.000000 *  0.500000 *  0.312307 *  -2.00000    1.000000    
     25 O     c    0.500000 *  0.000000 *  0.687693 *  -2.00000    1.000000    
     26 O     c    0.500000 *  0.000000 *  0.312307 *  -2.00000    1.000000    
     27 O     c    0.500000 *  0.500000 *  0.187693 *  -2.00000    1.000000    
     28 O     c    0.500000 *  0.500000 *  0.812307 *  -2.00000    1.000000    
--------------------------------------------------------------------------------



********************************************************************************
*  General input information                                                   *
********************************************************************************

  Species output for all configurations : 

--------------------------------------------------------------------------------
  Species    Type    Atomic    Atomic    Charge       Radii (Angs)     Library
                     Number     Mass       (e)     Cova   Ionic  VDW   Symbol
--------------------------------------------------------------------------------
    Mg       Core       12      24.31   2.000000   1.100  0.000  1.640          
    Al       Core       13      26.98   3.000000   1.350  0.000  2.050          
    O        Core        8      16.00  -2.000000   0.730  0.000  1.360          
--------------------------------------------------------------------------------


  Lattice summation method               =    Ewald          (3-D)
                                         =    Parry          (2-D)
                                         =    Saunders et al (1-D)
  Accuracy factor for lattice sums       =   12.000


  Analytic derivatives to be used

  Time limit = Infinity

  Maximum range for interatomic potentials =    100000.000000 Angstroms

  General interatomic potentials :

--------------------------------------------------------------------------------
Atom  Types   Potential      Parameter       Value         Units   Cutoffs(Ang)
  1     2                                                            Min /  Max 
--------------------------------------------------------------------------------
O    c Mg   c Lennard       Lennard-Jones A  1.5000000    eV*Ang^m  0.000  6.000
                            Lennard-Jones B  0.0000000    eV*Ang^n  
                            Exponent m        12          None
                            Exponent n         6          None
--------------------------------------------------------------------------------
O    c Al   c Lennard       Lennard-Jones A  1.5000000    eV*Ang^m  0.000  6.000
                            Lennard-Jones B  0.0000000    eV*Ang^n  
                            Exponent m        12          None
                            Exponent n         6          None
--------------------------------------------------------------------------------
O    c O    c Lennard       Lennard-Jones A  1.5000000    eV*Ang^m  0.000  6.000
                            Lennard-Jones B  0.0000000    eV*Ang^n  
                            Exponent m        12          None
                            Exponent n         6          None
--------------------------------------------------------------------------------
Mg   c Mg   c Lennard       Lennard-Jones A  1.5000000    eV*Ang^m  0.000  6.000
                            Lennard-Jones B  0.0000000    eV*Ang^n  
                            Exponent m        12          None
                            Exponent n         6          None
--------------------------------------------------------------------------------
Mg   c Al   c Lennard       Lennard-Jones A  1.5000000    eV*Ang^m  0.000  6.000
                            Lennard-Jones B  0.0000000    eV*Ang^n  
                            Exponent m        12          None
                            Exponent n         6          None
--------------------------------------------------------------------------------
Al   c Al   c Lennard       Lennard-Jones A  1.5000000    eV*Ang^m  0.000  6.000
                            Lennard-Jones B  0.0000000    eV*Ang^n  
                            Exponent m        12          None
                            Exponent n         6          None
--------------------------------------------------------------------------------
O    c Mg   c Buckingham    Buckingham A     1428.5000    eV        0.000  7.000
                            Buckingham rho  0.29450000    Ang       
                            Buckingham C     0.0000000    eV*Ang^6  
--------------------------------------------------------------------------------
O    c Al   c Buckingham    Buckingham A     1114.9000    eV        0.000  7.000
                            Buckingham rho  0.31180000    Ang       
                            Buckingham C     0.0000000    eV*Ang^6  
--------------------------------------------------------------------------------
O    c O    c Buckingham    Buckingham A     2023.8000    eV        0.000  7.000
                            Buckingham rho  0.26740000    Ang       
                            Buckingham C     0.0000000    eV*Ang^6  
--------------------------------------------------------------------------------

********************************************************************************
*  Output for configuration   1                                                *
********************************************************************************


  Components of enthalpy : 

--------------------------------------------------------------------------------
  Interatomic potentials     =         544.70176465 eV    
  Monopole - monopole (real) =        -467.08340466 eV    
  Monopole - monopole (recip)=        -464.14363219 eV    
  Monopole - monopole (total)=        -931.22703685 eV    
  Pressure*volume            =         148.71688991 eV    
--------------------------------------------------------------------------------
  Total lattice enthalpy     =        -237.80838230 eV    
--------------------------------------------------------------------------------
  Total lattice enthalpy     =          -22944.8737 kJ/(mole unit cells)
--------------------------------------------------------------------------------


  Number of variables =       87

  Maximum number of calculations  =           850
  Maximum Hessian update interval =            10
  Maximum step size               =   1.000000000
  Maximum parameter tolerance     =   0.000010000
  Maximum function  tolerance     =   0.000010000
  Maximum gradient  tolerance     =   0.001000000
  Maximum gradient  component     =   0.010000000

  Cell parameters to be optimised using strains

  Conjugate gradient optimiser to be used

  Lower half triangular hessian to be used

  Minimiser to switch to RFO
  When gradient norm is less than     0.010000

  Start of bulk optimisation :

  Cycle:      0 Energy:      -237.808382  Gnorm:     14.980808  CPU:    0.032
  Cycle:      1 Energy:      -407.136785  Gnorm:      5.644001  CPU:    0.099
  Cycle:      2 Energy:      -485.174418  Gnorm:      4.625363  CPU:    0.150
  Cycle:      3 Energy:      -513.240424  Gnorm:      1.729108  CPU:    0.194
  Cycle:      4 Energy:      -517.272052  Gnorm:      0.487571  CPU:    0.237
  Cycle:      5 Energy:      -517.851943  Gnorm:      0.155153  CPU:    0.280
  Cycle:      6 Energy:      -517.882895  Gnorm:      0.074868  CPU:    0.316
  Cycle:      7 Energy:      -517.892753  Gnorm:      0.043460  CPU:    0.359
  Cycle:      8 Energy:      -517.896236  Gnorm:      0.012252  CPU:    0.403
  Cycle:      9 Energy:      -517.896409  Gnorm:      0.002152  CPU:    0.439
  ** Hessian has wrong structure
  ** Imaginary eigenvectors =  33
  ** Hessian has wrong structure
  ** Imaginary eigenvectors =  33
  Cycle:     10 Energy:      -517.896421  Gnorm:      0.000012  CPU:    0.716
  ** Hessian has wrong structure
  ** Imaginary eigenvectors =  33
  ** Hessian has wrong structure
  ** Imaginary eigenvectors =  33


  **** Optimisation achieved ****


  Final enthalpy =    -517.89642122 eV      
  Final Gnorm    =       0.00002575

  Components of enthalpy : 

--------------------------------------------------------------------------------
  Interatomic potentials     =         288.07567262 eV    
  Monopole - monopole (real) =        -521.51777498 eV    
  Monopole - monopole (recip)=        -449.34717339 eV    
  Monopole - monopole (total)=        -970.86494836 eV    
  Pressure*volume            =         164.89285453 eV    
--------------------------------------------------------------------------------
  Total lattice enthalpy     =        -517.89642122 eV    
--------------------------------------------------------------------------------
  Total lattice enthalpy     =          -49969.0879 kJ/(mole unit cells)
--------------------------------------------------------------------------------

  Final fractional coordinates of atoms :

--------------------------------------------------------------------------------
   No.  Atomic        x           y          z          Radius
        Label       (Frac)      (Frac)     (Frac)       (Angs) 
--------------------------------------------------------------------------------
     1  Al    c     0.250000    0.250000    0.750000    0.000000
     2  Al    c     0.250000    0.750000    0.250004    0.000000
     3  Al    c     0.750000    0.250000    0.250024    0.000000
     4  Al    c     0.750000    0.750000    0.750025    0.000000
     5  Al    c     0.000000    0.999985    0.000006    0.000000
     6  Al    c     1.000000    0.499985    0.500006    0.000000
     7  Al    c     0.500000    0.000015    0.500006    0.000000
     8  Al    c     0.500000    0.500015    0.000006    0.000000
     9  Mg    c     1.000000    0.999974    0.500006    0.000000
    10  Mg    c     0.000000    0.499974    0.000006    0.000000
    11  Mg    c     0.500000    0.000026    0.000006    0.000000
    12  Mg    c     0.500000    0.500026    0.500006    0.000000
    13  O     c     0.250003    0.477707    0.250007    0.000000
    14  O     c     0.750003    0.522293    0.250013    0.000000
    15  O     c     0.250003    0.977707    0.750003    0.000000
    16  O     c     0.750003    0.022293    0.750013    0.000000
    17  O     c     0.749997    0.477707    0.750013    0.000000
    18  O     c     0.249997    0.522293    0.750003    0.000000
    19  O     c     0.749997    0.977707    0.250013    0.000000
    20  O     c     0.249997    0.022293    0.250007    0.000000
    21  O     c     0.999999    0.999985    0.234544    0.000000
    22  O     c     0.000001    0.999985    0.765468    0.000000
    23  O     c     0.999999    0.499985    0.734544    0.000000
    24  O     c     0.000001    0.499985    0.265468    0.000000
    25  O     c     0.500001    0.000015    0.734544    0.000000
    26  O     c     0.499999    0.000015    0.265468    0.000000
    27  O     c     0.500001    0.500015    0.234544    0.000000
    28  O     c     0.499999    0.500015    0.765468    0.000000
--------------------------------------------------------------------------------

  Final Cartesian lattice vectors (Angstroms) :

        8.635004    0.000049   -0.000000
        0.000029    5.192911    0.000000
       -0.000000    0.000000    5.891721


  Final cell parameters and derivatives :

--------------------------------------------------------------------------------
       a            8.635004 Angstrom     dE/de1(xx)    -0.000146 eV/strain
       b            5.192911 Angstrom     dE/de2(yy)    -0.000003 eV/strain
       c            5.891721 Angstrom     dE/de3(zz)     0.000056 eV/strain
       alpha       90.000000 Degrees      dE/de4(yz)     0.000000 eV/strain
       beta        90.000000 Degrees      dE/de5(xz)     0.000000 eV/strain
       gamma       89.999356 Degrees      dE/de6(xy)    -0.002202 eV/strain
--------------------------------------------------------------------------------

  Primitive cell volume =           264.189518 Angs**3

  Density of cell =      3.576957 g/cm**3

  Non-primitive cell volume =           264.189518 Angs**3


  Final internal derivatives :

--------------------------------------------------------------------------------
   No.  Atomic          a             b             c           Radius
        Label          (eV)          (eV)          (eV)        (eV/Angs)
--------------------------------------------------------------------------------
      1 Al    c       0.000000      0.000000      0.000000      0.000000
      2 Al    c       0.000000      0.000000     -0.000018      0.000000
      3 Al    c      -0.000000      0.000000     -0.000077      0.000000
      4 Al    c      -0.000000      0.000000     -0.000078      0.000000
      5 Al    c      -0.000001      0.000050     -0.000050      0.000000
      6 Al    c      -0.000001      0.000050     -0.000050      0.000000
      7 Al    c       0.000001     -0.000050     -0.000050      0.000000
      8 Al    c       0.000001     -0.000050     -0.000050      0.000000
      9 Mg    c       0.000000      0.000091     -0.000046      0.000000
     10 Mg    c      -0.000000      0.000091     -0.000046      0.000000
     11 Mg    c       0.000000     -0.000091     -0.000046      0.000000
     12 Mg    c      -0.000000     -0.000091     -0.000046      0.000000
     13 O     c      -0.000005     -0.000031     -0.000035      0.000000
     14 O     c      -0.000010      0.000030     -0.000065      0.000000
     15 O     c      -0.000004     -0.000031     -0.000022      0.000000
     16 O     c      -0.000009      0.000030     -0.000064      0.000000
     17 O     c       0.000009     -0.000030     -0.000064      0.000000
     18 O     c       0.000004      0.000031     -0.000022      0.000000
     19 O     c       0.000010     -0.000030     -0.000065      0.000000
     20 O     c       0.000005      0.000031     -0.000035      0.000000
     21 O     c       0.000002      0.000056     -0.000036      0.000000
     22 O     c      -0.000000      0.000056     -0.000059      0.000000
     23 O     c       0.000001      0.000056     -0.000038      0.000000
     24 O     c      -0.000000      0.000056     -0.000058      0.000000
     25 O     c      -0.000001     -0.000056     -0.000038      0.000000
     26 O     c       0.000000     -0.000056     -0.000058      0.000000
     27 O     c      -0.000002     -0.000056     -0.000036      0.000000
     28 O     c       0.000000     -0.000056     -0.000059      0.000000
--------------------------------------------------------------------------------
  Maximum abs         0.000010      0.000091      0.000078      0.000000
--------------------------------------------------------------------------------


  Time to end of optimisation =       0.9038 seconds


  Peak dynamic memory used =       2.03 MB 


  Timing analysis for GULP :

--------------------------------------------------------------------------------
  Task / Subroutine                                          Time (Seconds)
--------------------------------------------------------------------------------
  Calculation of reciprocal space energy and derivatives          0.0672
  Calculation of real space energy and derivatives                0.7440
  Calculation and manipulation of Hessian matrix                  0.1233
--------------------------------------------------------------------------------
  Total CPU time                                                  0.9038
--------------------------------------------------------------------------------


  Job Finished at 15:46.35 11th June       2024                               

