********************************************************************************
*                       GENERAL UTILITY LATTICE PROGRAM                        *
*                                 Julian Gale                                  *
*                       Curtin Institute for Computation                       *
*                    School of Molecular and Life Sciences                     *
*                    Curtin University, Western Australia                      *
********************************************************************************
* Version = 6.0.0 * Last modified =  12th July 2021                            *
********************************************************************************
*  optimise     - perform optimisation run                                     *
*  conp         - constant pressure calculation                                *
*  nosymmetry   - turn off symmetry after initial structure generation         *
*  conjugate    - use conjugate gradients minimiser                            *
********************************************************************************

  Job Started  at 15:46.00 11th June       2024                               

  Number of CPUs =     1


  Total number of configurations input =      1

********************************************************************************
*  Input for Configuration =   1                                               *
********************************************************************************

  Formula = Al8Mg4O16                                                   

  Number of irreducible atoms/shells =      28


  Total number atoms/shells =      28

  Dimensionality = 3               :  Bulk   



  Cartesian lattice vectors (Angstroms) :

        5.089457    0.000000    0.000000
        0.000000    5.089457    0.000000
        0.000000    0.000000   10.974524

  Cell parameters (Angstroms/Degrees):

  a =       5.0895    alpha =  90.0000
  b =       5.0895    beta  =  90.0000
  c =      10.9745    gamma =  90.0000

  Initial cell volume =         284.268378 Angs**3

  Temperature of configuration =   0.00     K 

  Pressure of configuration =       100.000 GPa 

  Fractional coordinates of asymmetric unit :

--------------------------------------------------------------------------------
   No.  Atomic       x           y          z         Charge      Occupancy
        Label      (Frac)      (Frac)     (Frac)        (e)         (Frac)  
--------------------------------------------------------------------------------
      1 Al    c    0.778602    0.961750    0.301908     3.00000    1.000000    
      2 Al    c    0.221398 *  0.038250 *  0.301908 *   3.00000    1.000000    
      3 Al    c    0.038250 *  0.778602 *  0.301908 *   3.00000    1.000000    
      4 Al    c    0.961750 *  0.221398 *  0.301908 *   3.00000    1.000000    
      5 Al    c    0.278602 *  0.461750 *  0.801908 *   3.00000    1.000000    
      6 Al    c    0.721398 *  0.538250 *  0.801908 *   3.00000    1.000000    
      7 Al    c    0.538250 *  0.278602 *  0.801908 *   3.00000    1.000000    
      8 Al    c    0.461750 *  0.721398 *  0.801908 *   3.00000    1.000000    
      9 Mg    c    0.000000 *  0.000000 *  0.118736 *   2.00000    1.000000    
     10 Mg    c    0.500000 *  0.500000 *  0.618736 *   2.00000    1.000000    
     11 Mg    c    0.000000 *  0.000000 *  0.510051 *   2.00000    1.000000    
     12 Mg    c    0.500000 *  0.500000 *  0.010051 *   2.00000    1.000000    
     13 O     c    0.875854 *  0.410957 *  0.156931 *  -2.00000    1.000000    
     14 O     c    0.124146 *  0.589043 *  0.156931 *  -2.00000    1.000000    
     15 O     c    0.589043 *  0.875854 *  0.156931 *  -2.00000    1.000000    
     16 O     c    0.410957 *  0.124146 *  0.156931 *  -2.00000    1.000000    
     17 O     c    0.375854 *  0.910957 *  0.656931 *  -2.00000    1.000000    
     18 O     c    0.624146 *  0.089043 *  0.656931 *  -2.00000    1.000000    
     19 O     c    0.089043 *  0.375854 *  0.656931 *  -2.00000    1.000000    
     20 O     c    0.910957 *  0.624146 *  0.656931 *  -2.00000    1.000000    
     21 O     c    0.000000 *  0.500000 *  0.673186 *  -2.00000    1.000000    
     22 O     c    0.500000 *  0.000000 *  0.673186 *  -2.00000    1.000000    
     23 O     c    0.500000 *  0.000000 *  0.173186 *  -2.00000    1.000000    
     24 O     c    0.000000 *  0.500000 *  0.173186 *  -2.00000    1.000000    
     25 O     c    0.000000 *  0.500000 *  0.991800 *  -2.00000    1.000000    
     26 O     c    0.500000 *  0.000000 *  0.991800 *  -2.00000    1.000000    
     27 O     c    0.500000 *  0.000000 *  0.491800 *  -2.00000    1.000000    
     28 O     c    0.000000 *  0.500000 *  0.491800 *  -2.00000    1.000000    
--------------------------------------------------------------------------------



********************************************************************************
*  General input information                                                   *
********************************************************************************

  Species output for all configurations : 

--------------------------------------------------------------------------------
  Species    Type    Atomic    Atomic    Charge       Radii (Angs)     Library
                     Number     Mass       (e)     Cova   Ionic  VDW   Symbol
--------------------------------------------------------------------------------
    Mg       Core       12      24.31   2.000000   1.100  0.000  1.640          
    Al       Core       13      26.98   3.000000   1.350  0.000  2.050          
    O        Core        8      16.00  -2.000000   0.730  0.000  1.360          
--------------------------------------------------------------------------------


  Lattice summation method               =    Ewald          (3-D)
                                         =    Parry          (2-D)
                                         =    Saunders et al (1-D)
  Accuracy factor for lattice sums       =   12.000


  Analytic derivatives to be used

  Time limit = Infinity

  Maximum range for interatomic potentials =    100000.000000 Angstroms

  General interatomic potentials :

--------------------------------------------------------------------------------
Atom  Types   Potential      Parameter       Value         Units   Cutoffs(Ang)
  1     2                                                            Min /  Max 
--------------------------------------------------------------------------------
O    c Mg   c Lennard       Lennard-Jones A  1.5000000    eV*Ang^m  0.000  6.000
                            Lennard-Jones B  0.0000000    eV*Ang^n  
                            Exponent m        12          None
                            Exponent n         6          None
--------------------------------------------------------------------------------
O    c Al   c Lennard       Lennard-Jones A  1.5000000    eV*Ang^m  0.000  6.000
                            Lennard-Jones B  0.0000000    eV*Ang^n  
                            Exponent m        12          None
                            Exponent n         6          None
--------------------------------------------------------------------------------
O    c O    c Lennard       Lennard-Jones A  1.5000000    eV*Ang^m  0.000  6.000
                            Lennard-Jones B  0.0000000    eV*Ang^n  
                            Exponent m        12          None
                            Exponent n         6          None
--------------------------------------------------------------------------------
Mg   c Mg   c Lennard       Lennard-Jones A  1.5000000    eV*Ang^m  0.000  6.000
                            Lennard-Jones B  0.0000000    eV*Ang^n  
                            Exponent m        12          None
                            Exponent n         6          None
--------------------------------------------------------------------------------
Mg   c Al   c Lennard       Lennard-Jones A  1.5000000    eV*Ang^m  0.000  6.000
                            Lennard-Jones B  0.0000000    eV*Ang^n  
                            Exponent m        12          None
                            Exponent n         6          None
--------------------------------------------------------------------------------
Al   c Al   c Lennard       Lennard-Jones A  1.5000000    eV*Ang^m  0.000  6.000
                            Lennard-Jones B  0.0000000    eV*Ang^n  
                            Exponent m        12          None
                            Exponent n         6          None
--------------------------------------------------------------------------------
O    c Mg   c Buckingham    Buckingham A     1428.5000    eV        0.000  7.000
                            Buckingham rho  0.29450000    Ang       
                            Buckingham C     0.0000000    eV*Ang^6  
--------------------------------------------------------------------------------
O    c Al   c Buckingham    Buckingham A     1114.9000    eV        0.000  7.000
                            Buckingham rho  0.31180000    Ang       
                            Buckingham C     0.0000000    eV*Ang^6  
--------------------------------------------------------------------------------
O    c O    c Buckingham    Buckingham A     2023.8000    eV        0.000  7.000
                            Buckingham rho  0.26740000    Ang       
                            Buckingham C     0.0000000    eV*Ang^6  
--------------------------------------------------------------------------------

********************************************************************************
*  Output for configuration   1                                                *
********************************************************************************


  Components of enthalpy : 

--------------------------------------------------------------------------------
  Interatomic potentials     =        1095.06560646 eV    
  Monopole - monopole (real) =         431.71083617 eV    
  Monopole - monopole (recip)=        -388.21327284 eV    
  Monopole - monopole (total)=          43.49756332 eV    
  Pressure*volume            =         177.42499649 eV    
--------------------------------------------------------------------------------
  Total lattice enthalpy     =        1315.98816627 eV    
--------------------------------------------------------------------------------
  Total lattice enthalpy     =          126972.7413 kJ/(mole unit cells)
--------------------------------------------------------------------------------


  Number of variables =       87

  Maximum number of calculations  =           850
  Maximum Hessian update interval =            10
  Maximum step size               =   1.000000000
  Maximum parameter tolerance     =   0.000010000
  Maximum function  tolerance     =   0.000010000
  Maximum gradient  tolerance     =   0.001000000
  Maximum gradient  component     =   0.010000000

  Cell parameters to be optimised using strains

  Conjugate gradient optimiser to be used

  Lower half triangular hessian to be used

  Minimiser to switch to RFO
  When gradient norm is less than     0.010000

  Start of bulk optimisation :

  Cycle:      0 Energy:      1315.988166  Gnorm:    185.129076  CPU:    0.033
  Cycle:      1 Energy:      -166.459040  Gnorm:     16.254458  CPU:    0.113
  Cycle:      2 Energy:      -332.411409  Gnorm:     10.731256  CPU:    0.165
  Cycle:      3 Energy:      -361.632067  Gnorm:      6.032816  CPU:    0.211
  Cycle:      4 Energy:      -392.532714  Gnorm:      5.676995  CPU:    0.267
  Cycle:      5 Energy:      -430.536993  Gnorm:      5.515193  CPU:    0.316
  Cycle:      6 Energy:      -444.823099  Gnorm:      4.464272  CPU:    0.363
  Cycle:      7 Energy:      -463.945128  Gnorm:      2.726055  CPU:    0.409
  Cycle:      8 Energy:      -470.450241  Gnorm:      2.368853  CPU:    0.465
  Cycle:      9 Energy:      -476.718272  Gnorm:      2.356506  CPU:    0.512
  Cycle:     10 Energy:      -480.775158  Gnorm:      2.142712  CPU:    0.551
  Cycle:     11 Energy:      -492.237817  Gnorm:      3.118368  CPU:    0.609
  Cycle:     12 Energy:      -510.322646  Gnorm:      4.330299  CPU:    0.671
  Cycle:     13 Energy:      -529.611802  Gnorm:      3.857062  CPU:    0.709
  Cycle:     14 Energy:      -545.386562  Gnorm:      3.025367  CPU:    0.756
  Cycle:     15 Energy:      -562.419514  Gnorm:      2.976818  CPU:    0.813
  Cycle:     16 Energy:      -575.044226  Gnorm:      2.262659  CPU:    0.881
  Cycle:     17 Energy:      -584.832294  Gnorm:      1.762498  CPU:    0.945
  Cycle:     18 Energy:      -590.397979  Gnorm:      1.845201  CPU:    1.002
  Cycle:     19 Energy:      -595.764122  Gnorm:      1.598808  CPU:    1.049
  Cycle:     20 Energy:      -598.702751  Gnorm:      1.383565  CPU:    1.088
  Cycle:     21 Energy:      -602.584692  Gnorm:      1.568581  CPU:    1.138
  Cycle:     22 Energy:      -607.628217  Gnorm:      1.527777  CPU:    1.185
  Cycle:     23 Energy:      -613.373488  Gnorm:      1.384145  CPU:    1.246
  Cycle:     24 Energy:      -617.019638  Gnorm:      1.534128  CPU:    1.310
  Cycle:     25 Energy:      -620.737796  Gnorm:      1.370165  CPU:    1.379
  Cycle:     26 Energy:      -624.682507  Gnorm:      1.168796  CPU:    1.429
  Cycle:     27 Energy:      -627.612088  Gnorm:      0.907588  CPU:    1.479
  Cycle:     28 Energy:      -629.292491  Gnorm:      0.906335  CPU:    1.526
  Cycle:     29 Energy:      -630.637972  Gnorm:      0.699402  CPU:    1.564
  Cycle:     30 Energy:      -631.321965  Gnorm:      0.629742  CPU:    1.606
  Cycle:     31 Energy:      -632.030060  Gnorm:      0.540674  CPU:    1.654
  Cycle:     32 Energy:      -632.880016  Gnorm:      0.607197  CPU:    1.701
  Cycle:     33 Energy:      -633.572917  Gnorm:      0.621160  CPU:    1.743
  Cycle:     34 Energy:      -634.228114  Gnorm:      0.476931  CPU:    1.781
  Cycle:     35 Energy:      -634.825871  Gnorm:      0.391512  CPU:    1.828
  Cycle:     36 Energy:      -635.169850  Gnorm:      0.376482  CPU:    1.870
  Cycle:     37 Energy:      -635.343714  Gnorm:      0.272747  CPU:    1.908
  Cycle:     38 Energy:      -635.520642  Gnorm:      0.266115  CPU:    1.947
  Cycle:     39 Energy:      -635.704559  Gnorm:      0.338604  CPU:    1.997
  Cycle:     40 Energy:      -635.803526  Gnorm:      0.219325  CPU:    2.035
  Cycle:     41 Energy:      -635.946760  Gnorm:      0.205337  CPU:    2.082
  Cycle:     42 Energy:      -636.077326  Gnorm:      0.301667  CPU:    2.132
  Cycle:     43 Energy:      -636.223148  Gnorm:      0.289770  CPU:    2.170
  Cycle:     44 Energy:      -636.522678  Gnorm:      0.339954  CPU:    2.217
  Cycle:     45 Energy:      -636.712445  Gnorm:      0.341271  CPU:    2.256
  Cycle:     46 Energy:      -636.952243  Gnorm:      0.290424  CPU:    2.303
  Cycle:     47 Energy:      -637.143415  Gnorm:      0.364362  CPU:    2.350
  Cycle:     48 Energy:      -637.390129  Gnorm:      0.287143  CPU:    2.388
  Cycle:     49 Energy:      -637.579561  Gnorm:      0.285169  CPU:    2.435
  Cycle:     50 Energy:      -637.684438  Gnorm:      0.261542  CPU:    2.473
  Cycle:     51 Energy:      -637.824112  Gnorm:      0.237646  CPU:    2.524
  Cycle:     52 Energy:      -637.957668  Gnorm:      0.235512  CPU:    2.575
  Cycle:     53 Energy:      -638.022838  Gnorm:      0.179474  CPU:    2.613
  Cycle:     54 Energy:      -638.115552  Gnorm:      0.161340  CPU:    2.660
  Cycle:     55 Energy:      -638.198784  Gnorm:      0.197190  CPU:    2.706
  Cycle:     56 Energy:      -638.296831  Gnorm:      0.295949  CPU:    2.745
  Cycle:     57 Energy:      -638.471921  Gnorm:      0.271208  CPU:    2.791
  Cycle:     58 Energy:      -638.612299  Gnorm:      0.270440  CPU:    2.829
  Cycle:     59 Energy:      -638.741618  Gnorm:      0.275066  CPU:    2.876
  Cycle:     60 Energy:      -638.821356  Gnorm:      0.198414  CPU:    2.914
  Cycle:     61 Energy:      -638.888793  Gnorm:      0.200779  CPU:    2.961
  Cycle:     62 Energy:      -639.013118  Gnorm:      0.205940  CPU:    3.007
  Cycle:     63 Energy:      -639.097664  Gnorm:      0.195050  CPU:    3.046
  Cycle:     64 Energy:      -639.145990  Gnorm:      0.147018  CPU:    3.084
  Cycle:     65 Energy:      -639.217489  Gnorm:      0.127417  CPU:    3.132
  Cycle:     66 Energy:      -639.278260  Gnorm:      0.144809  CPU:    3.179
  Cycle:     67 Energy:      -639.332535  Gnorm:      0.201401  CPU:    3.218
  Cycle:     68 Energy:      -639.387956  Gnorm:      0.145324  CPU:    3.256
  Cycle:     69 Energy:      -639.456111  Gnorm:      0.173811  CPU:    3.303
  Cycle:     70 Energy:      -639.483143  Gnorm:      0.114735  CPU:    3.342
  Cycle:     71 Energy:      -639.507683  Gnorm:      0.111595  CPU:    3.389
  Cycle:     72 Energy:      -639.549768  Gnorm:      0.111818  CPU:    3.435
  Cycle:     73 Energy:      -639.571160  Gnorm:      0.123195  CPU:    3.474
  Cycle:     74 Energy:      -639.603247  Gnorm:      0.117651  CPU:    3.521
  Cycle:     75 Energy:      -639.652532  Gnorm:      0.131947  CPU:    3.568
  Cycle:     76 Energy:      -639.737336  Gnorm:      0.171055  CPU:    3.615
  Cycle:     77 Energy:      -639.821417  Gnorm:      0.214955  CPU:    3.653
  Cycle:     78 Energy:      -639.894968  Gnorm:      0.249154  CPU:    3.692
  Cycle:     79 Energy:      -640.017428  Gnorm:      0.206770  CPU:    3.740
  Cycle:     80 Energy:      -640.096098  Gnorm:      0.260262  CPU:    3.787
  Cycle:     81 Energy:      -640.202769  Gnorm:      0.213330  CPU:    3.838
  Cycle:     82 Energy:      -640.304252  Gnorm:      0.167144  CPU:    3.885
  Cycle:     83 Energy:      -640.359741  Gnorm:      0.177456  CPU:    3.924
  Cycle:     84 Energy:      -640.398495  Gnorm:      0.119659  CPU:    3.962
  Cycle:     85 Energy:      -640.437842  Gnorm:      0.102794  CPU:    4.009
  Cycle:     86 Energy:      -640.461428  Gnorm:      0.110591  CPU:    4.048
  Cycle:     87 Energy:      -640.479180  Gnorm:      0.102038  CPU:    4.087
  Cycle:     88 Energy:      -640.501423  Gnorm:      0.089045  CPU:    4.134
  Cycle:     89 Energy:      -640.524433  Gnorm:      0.103882  CPU:    4.181
  Cycle:     90 Energy:      -640.534716  Gnorm:      0.077922  CPU:    4.220
  Cycle:     91 Energy:      -640.545622  Gnorm:      0.065923  CPU:    4.258
  Cycle:     92 Energy:      -640.560959  Gnorm:      0.079617  CPU:    4.306
  Cycle:     93 Energy:      -640.569728  Gnorm:      0.076308  CPU:    4.345
  Cycle:     94 Energy:      -640.584095  Gnorm:      0.069348  CPU:    4.392
  Cycle:     95 Energy:      -640.599382  Gnorm:      0.087601  CPU:    4.440
  Cycle:     96 Energy:      -640.616886  Gnorm:      0.105329  CPU:    4.478
  Cycle:     97 Energy:      -640.635611  Gnorm:      0.096789  CPU:    4.517
  Cycle:     98 Energy:      -640.663160  Gnorm:      0.125039  CPU:    4.564
  Cycle:     99 Energy:      -640.687956  Gnorm:      0.125780  CPU:    4.603
  Cycle:    100 Energy:      -640.703890  Gnorm:      0.107678  CPU:    4.641
  Cycle:    101 Energy:      -640.728940  Gnorm:      0.082946  CPU:    4.680
  Cycle:    102 Energy:      -640.744790  Gnorm:      0.082455  CPU:    4.727
  Cycle:    103 Energy:      -640.754938  Gnorm:      0.084308  CPU:    4.766
  Cycle:    104 Energy:      -640.771750  Gnorm:      0.063874  CPU:    4.813
  Cycle:    105 Energy:      -640.785441  Gnorm:      0.071431  CPU:    4.860
  Cycle:    106 Energy:      -640.801240  Gnorm:      0.094372  CPU:    4.908
  Cycle:    107 Energy:      -640.813732  Gnorm:      0.095967  CPU:    4.947
  Cycle:    108 Energy:      -640.835099  Gnorm:      0.095953  CPU:    4.994
  Cycle:    109 Energy:      -640.874140  Gnorm:      0.189274  CPU:    5.041
  Cycle:    110 Energy:      -640.901223  Gnorm:      0.116101  CPU:    5.080
  Cycle:    111 Energy:      -640.926952  Gnorm:      0.084935  CPU:    5.119
  Cycle:    112 Energy:      -640.946381  Gnorm:      0.093466  CPU:    5.166
  Cycle:    113 Energy:      -640.964194  Gnorm:      0.109564  CPU:    5.204
  Cycle:    114 Energy:      -640.983368  Gnorm:      0.086366  CPU:    5.243
  Cycle:    115 Energy:      -641.010745  Gnorm:      0.098414  CPU:    5.290
  Cycle:    116 Energy:      -641.049731  Gnorm:      0.108072  CPU:    5.337
  Cycle:    117 Energy:      -641.092472  Gnorm:      0.174542  CPU:    5.384
  Cycle:    118 Energy:      -641.129459  Gnorm:      0.149775  CPU:    5.422
  Cycle:    119 Energy:      -641.190551  Gnorm:      0.186947  CPU:    5.469
  Cycle:    120 Energy:      -641.215575  Gnorm:      0.111679  CPU:    5.508
  Cycle:    121 Energy:      -641.246874  Gnorm:      0.116504  CPU:    5.555
  Cycle:    122 Energy:      -641.289982  Gnorm:      0.090016  CPU:    5.602
  Cycle:    123 Energy:      -641.314221  Gnorm:      0.087360  CPU:    5.649
  Cycle:    124 Energy:      -641.332329  Gnorm:      0.100403  CPU:    5.687
  Cycle:    125 Energy:      -641.345383  Gnorm:      0.086342  CPU:    5.726
  Cycle:    126 Energy:      -641.365638  Gnorm:      0.086996  CPU:    5.773
  Cycle:    127 Energy:      -641.382776  Gnorm:      0.121138  CPU:    5.812
  Cycle:    128 Energy:      -641.408724  Gnorm:      0.120180  CPU:    5.858
  Cycle:    129 Energy:      -641.465968  Gnorm:      0.172127  CPU:    5.905
  Cycle:    130 Energy:      -641.492999  Gnorm:      0.109739  CPU:    5.944
  Cycle:    131 Energy:      -641.510052  Gnorm:      0.098156  CPU:    5.982
  Cycle:    132 Energy:      -641.535599  Gnorm:      0.092716  CPU:    6.029
  Cycle:    133 Energy:      -641.550786  Gnorm:      0.105989  CPU:    6.068
  Cycle:    134 Energy:      -641.569467  Gnorm:      0.086178  CPU:    6.107
  Cycle:    135 Energy:      -641.596269  Gnorm:      0.091259  CPU:    6.154
  Cycle:    136 Energy:      -641.629630  Gnorm:      0.110429  CPU:    6.201
  Cycle:    137 Energy:      -641.669709  Gnorm:      0.127988  CPU:    6.240
  Cycle:    138 Energy:      -641.701300  Gnorm:      0.170529  CPU:    6.278
  Cycle:    139 Energy:      -641.756637  Gnorm:      0.163193  CPU:    6.325
  Cycle:    140 Energy:      -641.801286  Gnorm:      0.159875  CPU:    6.364
  Cycle:    141 Energy:      -641.831851  Gnorm:      0.133242  CPU:    6.403
  Cycle:    142 Energy:      -641.873112  Gnorm:      0.110884  CPU:    6.449
  Cycle:    143 Energy:      -641.904441  Gnorm:      0.112936  CPU:    6.496
  Cycle:    144 Energy:      -641.923033  Gnorm:      0.111292  CPU:    6.535
  Cycle:    145 Energy:      -641.947819  Gnorm:      0.090741  CPU:    6.582
  Cycle:    146 Energy:      -641.983905  Gnorm:      0.113568  CPU:    6.629
  Cycle:    147 Energy:      -642.031095  Gnorm:      0.130488  CPU:    6.675
  Cycle:    148 Energy:      -642.079895  Gnorm:      0.176339  CPU:    6.715
  Cycle:    149 Energy:      -642.135083  Gnorm:      0.257727  CPU:    6.761
  Cycle:    150 Energy:      -642.184539  Gnorm:      0.162467  CPU:    6.814
  Cycle:    151 Energy:      -642.225855  Gnorm:      0.134135  CPU:    6.879
  Cycle:    152 Energy:      -642.279606  Gnorm:      0.134459  CPU:    6.932
  Cycle:    153 Energy:      -642.323038  Gnorm:      0.163828  CPU:    6.985
  Cycle:    154 Energy:      -642.358482  Gnorm:      0.135071  CPU:    7.038
  Cycle:    155 Energy:      -642.408644  Gnorm:      0.144502  CPU:    7.103
  Cycle:    156 Energy:      -642.466202  Gnorm:      0.210987  CPU:    7.169
  Cycle:    157 Energy:      -642.520880  Gnorm:      0.182989  CPU:    7.222
  Cycle:    158 Energy:      -642.593454  Gnorm:      0.198818  CPU:    7.287
  Cycle:    159 Energy:      -642.651087  Gnorm:      0.189751  CPU:    7.351
  Cycle:    160 Energy:      -642.686437  Gnorm:      0.157781  CPU:    7.405
  Cycle:    161 Energy:      -642.726520  Gnorm:      0.164783  CPU:    7.470
  Cycle:    162 Energy:      -642.812591  Gnorm:      0.195527  CPU:    7.535
  Cycle:    163 Energy:      -642.876982  Gnorm:      0.221504  CPU:    7.588
  Cycle:    164 Energy:      -642.963725  Gnorm:      0.205924  CPU:    7.653
  Cycle:    165 Energy:      -643.127677  Gnorm:      0.285183  CPU:    7.718
  Cycle:    166 Energy:      -643.280056  Gnorm:      0.295086  CPU:    7.772
  Cycle:    167 Energy:      -643.387434  Gnorm:      0.299519  CPU:    7.825
  Cycle:    168 Energy:      -643.495139  Gnorm:      0.231156  CPU:    7.879
  Cycle:    169 Energy:      -643.593254  Gnorm:      0.235657  CPU:    7.953
  Cycle:    170 Energy:      -643.643610  Gnorm:      0.214232  CPU:    8.007
  Cycle:    171 Energy:      -643.736915  Gnorm:      0.202318  CPU:    8.073
  Cycle:    172 Energy:      -643.820178  Gnorm:      0.218759  CPU:    8.139
  Cycle:    173 Energy:      -643.953279  Gnorm:      0.319037  CPU:    8.205
  Cycle:    174 Energy:      -644.083901  Gnorm:      0.241094  CPU:    8.258
  Cycle:    175 Energy:      -644.295181  Gnorm:      0.365921  CPU:    8.324
  Cycle:    176 Energy:      -644.588216  Gnorm:      0.565087  CPU:    8.390
  Cycle:    177 Energy:      -645.005420  Gnorm:      0.452917  CPU:    8.444
  Cycle:    178 Energy:      -645.250899  Gnorm:      0.427737  CPU:    8.498
  Cycle:    179 Energy:      -645.548966  Gnorm:      0.409305  CPU:    8.564
  Cycle:    180 Energy:      -645.750502  Gnorm:      0.380520  CPU:    8.618
  Cycle:    181 Energy:      -645.906487  Gnorm:      0.313921  CPU:    8.684
  Cycle:    182 Energy:      -646.159607  Gnorm:      0.398807  CPU:    8.751
  Cycle:    183 Energy:      -646.428938  Gnorm:      0.366376  CPU:    8.805
  Cycle:    184 Energy:      -646.584730  Gnorm:      0.318954  CPU:    8.859
  Cycle:    185 Energy:      -646.927628  Gnorm:      0.358210  CPU:    8.925
  Cycle:    186 Energy:      -647.230694  Gnorm:      0.390297  CPU:    8.980
  Cycle:    187 Energy:      -647.389351  Gnorm:      0.339555  CPU:    9.051
  Cycle:    188 Energy:      -647.535791  Gnorm:      0.303099  CPU:    9.118
  Cycle:    189 Energy:      -647.720901  Gnorm:      0.306644  CPU:    9.185
  Cycle:    190 Energy:      -647.799490  Gnorm:      0.220161  CPU:    9.244
  Cycle:    191 Energy:      -647.860349  Gnorm:      0.177504  CPU:    9.312
  Cycle:    192 Energy:      -647.919459  Gnorm:      0.226600  CPU:    9.382
  Cycle:    193 Energy:      -647.981519  Gnorm:      0.203246  CPU:    9.438
  Cycle:    194 Energy:      -648.069668  Gnorm:      0.177189  CPU:    9.506
  Cycle:    195 Energy:      -648.127784  Gnorm:      0.197485  CPU:    9.561
  Cycle:    196 Energy:      -648.187708  Gnorm:      0.243987  CPU:    9.616
  Cycle:    197 Energy:      -648.280939  Gnorm:      0.218413  CPU:    9.683
  Cycle:    198 Energy:      -648.356563  Gnorm:      0.237332  CPU:    9.751
  Cycle:    199 Energy:      -648.453709  Gnorm:      0.282813  CPU:    9.818
  Cycle:    200 Energy:      -648.527701  Gnorm:      0.219070  CPU:    9.873
  Cycle:    201 Energy:      -648.595730  Gnorm:      0.238985  CPU:    9.941
  Cycle:    202 Energy:      -648.718356  Gnorm:      0.288652  CPU:   10.008
  Cycle:    203 Energy:      -648.808196  Gnorm:      0.259108  CPU:   10.064
  Cycle:    204 Energy:      -648.952426  Gnorm:      0.184738  CPU:   10.135
  Cycle:    205 Energy:      -649.049464  Gnorm:      0.243218  CPU:   10.208
  Cycle:    206 Energy:      -649.104830  Gnorm:      0.176913  CPU:   10.271
  Cycle:    207 Energy:      -649.155449  Gnorm:      0.174537  CPU:   10.341
  Cycle:    208 Energy:      -649.182854  Gnorm:      0.136376  CPU:   10.398
  Cycle:    209 Energy:      -649.234955  Gnorm:      0.142198  CPU:   10.468
  Cycle:    210 Energy:      -649.257088  Gnorm:      0.118875  CPU:   10.524
  Cycle:    211 Energy:      -649.273087  Gnorm:      0.097395  CPU:   10.592
  Cycle:    212 Energy:      -649.292815  Gnorm:      0.121513  CPU:   10.663
  Cycle:    213 Energy:      -649.307750  Gnorm:      0.099226  CPU:   10.719
  Cycle:    214 Energy:      -649.329539  Gnorm:      0.079638  CPU:   10.789
  Cycle:    215 Energy:      -649.339475  Gnorm:      0.083610  CPU:   10.845
  Cycle:    216 Energy:      -649.348833  Gnorm:      0.083295  CPU:   10.901
  Cycle:    217 Energy:      -649.358282  Gnorm:      0.066800  CPU:   10.972
  Cycle:    218 Energy:      -649.364598  Gnorm:      0.060788  CPU:   11.028
  Cycle:    219 Energy:      -649.369619  Gnorm:      0.055742  CPU:   11.084
  Cycle:    220 Energy:      -649.373012  Gnorm:      0.052478  CPU:   11.139
  Cycle:    221 Energy:      -649.376663  Gnorm:      0.049636  CPU:   11.195
  Cycle:    222 Energy:      -649.381081  Gnorm:      0.052952  CPU:   11.263
  Cycle:    223 Energy:      -649.384409  Gnorm:      0.045447  CPU:   11.318
  Cycle:    224 Energy:      -649.387878  Gnorm:      0.035596  CPU:   11.374
  Cycle:    225 Energy:      -649.390580  Gnorm:      0.034170  CPU:   11.441
  Cycle:    226 Energy:      -649.394409  Gnorm:      0.035537  CPU:   11.520
  Cycle:    227 Energy:      -649.398365  Gnorm:      0.041041  CPU:   11.588
  Cycle:    228 Energy:      -649.400704  Gnorm:      0.057340  CPU:   11.672
  Cycle:    229 Energy:      -649.411532  Gnorm:      0.074387  CPU:   11.772
  Cycle:    230 Energy:      -649.416548  Gnorm:      0.047196  CPU:   11.851
  Cycle:    231 Energy:      -649.418438  Gnorm:      0.032057  CPU:   11.934
  Cycle:    232 Energy:      -649.420412  Gnorm:      0.035235  CPU:   12.017
  Cycle:    233 Energy:      -649.421671  Gnorm:      0.028030  CPU:   12.100
  Cycle:    234 Energy:      -649.423673  Gnorm:      0.026973  CPU:   12.179
  Cycle:    235 Energy:      -649.425289  Gnorm:      0.023389  CPU:   12.262
  Cycle:    236 Energy:      -649.427047  Gnorm:      0.029716  CPU:   12.340
  Cycle:    237 Energy:      -649.428828  Gnorm:      0.033979  CPU:   12.423
  Cycle:    238 Energy:      -649.430032  Gnorm:      0.030559  CPU:   12.502
  Cycle:    239 Energy:      -649.431571  Gnorm:      0.029031  CPU:   12.586
  Cycle:    240 Energy:      -649.432581  Gnorm:      0.027389  CPU:   12.664
  Cycle:    241 Energy:      -649.433534  Gnorm:      0.025058  CPU:   12.747
  Cycle:    242 Energy:      -649.434770  Gnorm:      0.029877  CPU:   12.826
  Cycle:    243 Energy:      -649.435768  Gnorm:      0.024373  CPU:   12.909
  Cycle:    244 Energy:      -649.436710  Gnorm:      0.019401  CPU:   12.988
  Cycle:    245 Energy:      -649.437807  Gnorm:      0.022226  CPU:   13.073
  Cycle:    246 Energy:      -649.438637  Gnorm:      0.024749  CPU:   13.152
  Cycle:    247 Energy:      -649.439359  Gnorm:      0.024720  CPU:   13.234
  Cycle:    248 Energy:      -649.440613  Gnorm:      0.023865  CPU:   13.313
  Cycle:    249 Energy:      -649.441783  Gnorm:      0.034841  CPU:   13.395
  Cycle:    250 Energy:      -649.442646  Gnorm:      0.023083  CPU:   13.474
  Cycle:    251 Energy:      -649.443708  Gnorm:      0.022720  CPU:   13.557
  Cycle:    252 Energy:      -649.444282  Gnorm:      0.021450  CPU:   13.636
  Cycle:    253 Energy:      -649.444936  Gnorm:      0.019575  CPU:   13.719
  Cycle:    254 Energy:      -649.445733  Gnorm:      0.016450  CPU:   13.798
  Cycle:    255 Energy:      -649.446333  Gnorm:      0.014922  CPU:   13.881
  Cycle:    256 Energy:      -649.447233  Gnorm:      0.017382  CPU:   13.978
  Cycle:    257 Energy:      -649.447755  Gnorm:      0.018765  CPU:   14.060
  Cycle:    258 Energy:      -649.448179  Gnorm:      0.016289  CPU:   14.139
  Cycle:    259 Energy:      -649.449427  Gnorm:      0.038546  CPU:   14.240
  Cycle:    260 Energy:      -649.450252  Gnorm:      0.018908  CPU:   14.318
  Cycle:    261 Energy:      -649.450652  Gnorm:      0.013397  CPU:   14.402
  Cycle:    262 Energy:      -649.451084  Gnorm:      0.017893  CPU:   14.481
  Cycle:    263 Energy:      -649.451481  Gnorm:      0.014559  CPU:   14.564
  Cycle:    264 Energy:      -649.451905  Gnorm:      0.012350  CPU:   14.662
  Cycle:    265 Energy:      -649.452197  Gnorm:      0.014544  CPU:   14.745
  Cycle:    266 Energy:      -649.452551  Gnorm:      0.014569  CPU:   14.825
  Cycle:    267 Energy:      -649.452908  Gnorm:      0.016825  CPU:   14.908
  Cycle:    268 Energy:      -649.453235  Gnorm:      0.014905  CPU:   14.987
  Cycle:    269 Energy:      -649.453684  Gnorm:      0.014821  CPU:   15.070
  Cycle:    270 Energy:      -649.453932  Gnorm:      0.013238  CPU:   15.148
  Cycle:    271 Energy:      -649.454236  Gnorm:      0.015487  CPU:   15.231
  Cycle:    272 Energy:      -649.454578  Gnorm:      0.013228  CPU:   15.310
  Cycle:    273 Energy:      -649.454807  Gnorm:      0.014640  CPU:   15.389
  Cycle:    274 Energy:      -649.455142  Gnorm:      0.010189  CPU:   15.469
  Cycle:    275 Energy:      -649.455327  Gnorm:      0.009000  CPU:   15.548
  ** Hessian has required structure
  Cycle:    276 Energy:      -649.458481  Gnorm:      0.006012  CPU:   15.803
  ** Hessian has required structure
  Cycle:    277 Energy:      -649.460968  Gnorm:      0.001849  CPU:   15.937
  ** Hessian has required structure
  Cycle:    278 Energy:      -649.461230  Gnorm:      0.000488  CPU:   16.036
  ** Hessian has required structure
  Cycle:    279 Energy:      -649.461245  Gnorm:      0.000217  CPU:   16.134
  ** Hessian has required structure


  **** Optimisation achieved ****


  Final enthalpy =    -649.46124516 eV      
  Final Gnorm    =       0.00002157

  Components of enthalpy : 

--------------------------------------------------------------------------------
  Interatomic potentials     =         221.18499673 eV    
  Monopole - monopole (real) =        -506.85636933 eV    
  Monopole - monopole (recip)=        -490.94083419 eV    
  Monopole - monopole (total)=        -997.79720352 eV    
  Pressure*volume            =         127.15096162 eV    
--------------------------------------------------------------------------------
  Total lattice enthalpy     =        -649.46124516 eV    
--------------------------------------------------------------------------------
  Total lattice enthalpy     =          -62663.0822 kJ/(mole unit cells)
--------------------------------------------------------------------------------

  Final fractional coordinates of atoms :

--------------------------------------------------------------------------------
   No.  Atomic        x           y          z          Radius
        Label       (Frac)      (Frac)     (Frac)       (Angs) 
--------------------------------------------------------------------------------
     1  Al    c     0.778602    0.961750    0.301908    0.000000
     2  Al    c     0.496522    0.454877    0.136263    0.000000
     3  Al    c     0.581216    0.947250    0.639193    0.000000
     4  Al    c     0.997963    0.449956    0.137265    0.000000
     5  Al    c     0.175793    0.416734    0.798088    0.000000
     6  Al    c     0.083913    0.946258    0.633132    0.000000
     7  Al    c     0.676101    0.424520    0.795767    0.000000
     8  Al    c     0.388957    0.941813    0.978670    0.000000
     9  Mg    c     0.887299    0.925654    0.968650    0.000000
    10  Mg    c     0.782643    0.461261    0.474730    0.000000
    11  Mg    c     0.283703    0.504164    0.463293    0.000000
    12  Mg    c     0.278634    0.006533    0.304513    0.000000
    13  O     c     0.972797    0.520684    0.921857    0.000000
    14  O     c     0.662248    0.158178    0.116647    0.000000
    15  O     c     0.807482    0.706493    0.162538    0.000000
    16  O     c     0.186622    0.189036    0.099087    0.000000
    17  O     c     0.777941    0.704188    0.674146    0.000000
    18  O     c     0.910469    0.237300    0.643035    0.000000
    19  O     c     0.409247    0.240742    0.624860    0.000000
    20  O     c     0.022962    0.834582    0.435600    0.000000
    21  O     c     0.278898    0.694991    0.667834    0.000000
    22  O     c     0.626106    0.061071    0.845040    0.000000
    23  O     c     0.988642    0.301542    0.331270    0.000000
    24  O     c     0.480364    0.543078    0.921879    0.000000
    25  O     c     0.303846    0.717915    0.144083    0.000000
    26  O     c     0.169296    0.048543    0.839423    0.000000
    27  O     c     0.558450    0.893233    0.435229    0.000000
    28  O     c     0.499230    0.385625    0.330902    0.000000
--------------------------------------------------------------------------------

  Final Cartesian lattice vectors (Angstroms) :

        5.284561   -0.624326   -0.230020
       -0.624049    4.709756    0.027953
       -0.487824    0.057090    8.336539


  Final cell parameters and derivatives :

--------------------------------------------------------------------------------
       a            5.326282 Angstrom     dE/de1(xx)     0.000256 eV/strain
       b            4.751002 Angstrom     dE/de2(yy)    -0.000265 eV/strain
       c            8.350995 Angstrom     dE/de3(zz)    -0.000224 eV/strain
       alpha       88.835485 Degrees      dE/de4(yz)    -0.000000 eV/strain
       beta        95.846865 Degrees      dE/de5(xz)    -0.000665 eV/strain
       gamma      104.286739 Degrees      dE/de6(xy)     0.000538 eV/strain
--------------------------------------------------------------------------------

  Primitive cell volume =           203.719872 Angs**3

  Density of cell =      4.638696 g/cm**3

  Non-primitive cell volume =           203.719872 Angs**3


  Final internal derivatives :

--------------------------------------------------------------------------------
   No.  Atomic          a             b             c           Radius
        Label          (eV)          (eV)          (eV)        (eV/Angs)
--------------------------------------------------------------------------------
      1 Al    c       0.000000      0.000000      0.000000      0.000000
      2 Al    c      -0.000422      0.000007      0.000119      0.000000
      3 Al    c       0.000006     -0.000036     -0.000020      0.000000
      4 Al    c       0.000108     -0.000200      0.000021      0.000000
      5 Al    c      -0.000090     -0.000029     -0.000218      0.000000
      6 Al    c      -0.000090      0.000003      0.000121      0.000000
      7 Al    c      -0.000088      0.000029      0.000002      0.000000
      8 Al    c       0.000181     -0.000274      0.000154      0.000000
      9 Mg    c      -0.000003      0.000219      0.000068      0.000000
     10 Mg    c      -0.000032     -0.000052     -0.000153      0.000000
     11 Mg    c      -0.000016     -0.000001     -0.000365      0.000000
     12 Mg    c      -0.000514      0.000019      0.000104      0.000000
     13 O     c       0.000024     -0.000051      0.000244      0.000000
     14 O     c       0.000042      0.000165      0.000327      0.000000
     15 O     c       0.000129     -0.000163     -0.000057      0.000000
     16 O     c      -0.000037      0.000115     -0.000159      0.000000
     17 O     c      -0.000029     -0.000026     -0.000170      0.000000
     18 O     c      -0.000075      0.000137      0.000055      0.000000
     19 O     c       0.000010     -0.000216      0.000004      0.000000
     20 O     c      -0.000250      0.000025     -0.000351      0.000000
     21 O     c      -0.000162      0.000139      0.000214      0.000000
     22 O     c      -0.000124      0.000174     -0.000085      0.000000
     23 O     c       0.000142     -0.000334     -0.000136      0.000000
     24 O     c      -0.000074      0.000262      0.000023      0.000000
     25 O     c      -0.000194     -0.000077     -0.000105      0.000000
     26 O     c      -0.000116     -0.000063     -0.000286      0.000000
     27 O     c       0.000126     -0.000044     -0.000098      0.000000
     28 O     c       0.000680     -0.000113     -0.000226      0.000000
--------------------------------------------------------------------------------
  Maximum abs         0.000680      0.000334      0.000365      0.000000
--------------------------------------------------------------------------------


  Time to end of optimisation =      16.2318 seconds


  Peak dynamic memory used =       2.03 MB 


  Timing analysis for GULP :

--------------------------------------------------------------------------------
  Task / Subroutine                                          Time (Seconds)
--------------------------------------------------------------------------------
  Calculation of reciprocal space energy and derivatives          0.8339
  Calculation of real space energy and derivatives               15.2323
  Calculation and manipulation of Hessian matrix                  0.0951
  Global summation overhead                                       0.0018
--------------------------------------------------------------------------------
  Total CPU time                                                 16.2319
--------------------------------------------------------------------------------


  Job Finished at 15:46.17 11th June       2024                               

