********************************************************************************
*                       GENERAL UTILITY LATTICE PROGRAM                        *
*                                 Julian Gale                                  *
*                       Curtin Institute for Computation                       *
*                    School of Molecular and Life Sciences                     *
*                    Curtin University, Western Australia                      *
********************************************************************************
* Version = 6.0.0 * Last modified =  12th July 2021                            *
********************************************************************************
*  optimise     - perform optimisation run                                     *
*  conp         - constant pressure calculation                                *
*  nosymmetry   - turn off symmetry after initial structure generation         *
*  conjugate    - use conjugate gradients minimiser                            *
********************************************************************************

  Job Started  at 16:50.51 11th June       2024                               

  Number of CPUs =     1


  Total number of configurations input =      1

********************************************************************************
*  Input for Configuration =   1                                               *
********************************************************************************

  Formula = Al8Mg4O16                                                   

  Number of irreducible atoms/shells =      28


  Total number atoms/shells =      28

  Dimensionality = 3               :  Bulk   



  Cartesian lattice vectors (Angstroms) :

        5.962619    0.012932   -0.501901
        0.005102    5.406402    0.263275
       -0.576744    0.137285    6.305554

  Cell parameters (Angstroms/Degrees):

  a =       5.9837    alpha =  85.9866
  b =       5.4128    beta  = 100.0325
  c =       6.3334    gamma =  90.0563

  Initial cell volume =         201.484576 Angs**3

  Temperature of configuration =   0.00     K 

  Pressure of configuration =       100.000 GPa 

  Fractional coordinates of asymmetric unit :

--------------------------------------------------------------------------------
   No.  Atomic       x           y          z         Charge      Occupancy
        Label      (Frac)      (Frac)     (Frac)        (e)         (Frac)  
--------------------------------------------------------------------------------
      1 Al    c    0.922449    0.190372    0.110381     3.00000    1.000000    
      2 Al    c    0.701355 *  0.716861 *  0.159000 *   3.00000    1.000000    
      3 Al    c    0.402505 *  0.200093 *  0.113046 *   3.00000    1.000000    
      4 Al    c    0.323932 *  0.022448 *  0.876742 *   3.00000    1.000000    
      5 Al    c    0.603728 *  0.157001 *  0.469095 *   3.00000    1.000000    
      6 Al    c    0.564124 *  0.743494 *  0.974856 *   3.00000    1.000000    
      7 Al    c    0.851090 *  0.893003 *  0.666670 *   3.00000    1.000000    
      8 Al    c    0.851092 *  0.474455 *  0.700790 *   3.00000    1.000000    
      9 Mg    c    0.174863 *  0.717385 *  0.153036 *   2.00000    1.000000    
     10 Mg    c    0.587221 *  0.881572 *  0.488525 *   2.00000    1.000000    
     11 Mg    c    0.587222 *  0.485888 *  0.878935 *   2.00000    1.000000    
     12 Mg    c    0.294948 *  0.466162 *  0.759746 *   2.00000    1.000000    
     13 O     c    0.918223 *  0.038628 *  0.328878 *  -2.00000    1.000000    
     14 O     c    0.402354 *  0.400713 *  0.329059 *  -2.00000    1.000000    
     15 O     c    0.495312 *  0.907969 *  0.225922 *  -2.00000    1.000000    
     16 O     c    0.638375 *  0.359823 *  0.069725 *  -2.00000    1.000000    
     17 O     c    0.122547 *  0.075172 *  0.080982 *  -2.00000    1.000000    
     18 O     c    0.988192 *  0.533340 *  0.225467 *  -2.00000    1.000000    
     19 O     c    0.073691 *  0.683730 *  0.683730 *  -2.00000    1.000000    
     20 O     c    0.294945 *  0.901300 *  0.607713 *  -2.00000    1.000000    
     21 O     c    0.041261 *  0.244650 *  0.450993 *  -2.00000    1.000000    
     22 O     c    0.323932 *  0.345011 *  0.490718 *  -2.00000    1.000000    
     23 O     c    0.041261 *  0.076102 *  0.916468 *  -2.00000    1.000000    
     24 O     c    0.062883 *  0.347295 *  0.020349 *  -2.00000    1.000000    
     25 O     c    0.849084 *  0.160375 *  0.683731 *  -2.00000    1.000000    
     26 O     c    0.603727 *  0.163754 *  0.898365 *  -2.00000    1.000000    
     27 O     c    0.067437 *  0.709606 *  0.995284 *  -2.00000    1.000000    
     28 O     c    0.851491 *  0.874744 *  0.013168 *  -2.00000    1.000000    
--------------------------------------------------------------------------------



********************************************************************************
*  General input information                                                   *
********************************************************************************

  Species output for all configurations : 

--------------------------------------------------------------------------------
  Species    Type    Atomic    Atomic    Charge       Radii (Angs)     Library
                     Number     Mass       (e)     Cova   Ionic  VDW   Symbol
--------------------------------------------------------------------------------
    Mg       Core       12      24.31   2.000000   1.100  0.000  1.640          
    Al       Core       13      26.98   3.000000   1.350  0.000  2.050          
    O        Core        8      16.00  -2.000000   0.730  0.000  1.360          
--------------------------------------------------------------------------------


  Lattice summation method               =    Ewald          (3-D)
                                         =    Parry          (2-D)
                                         =    Saunders et al (1-D)
  Accuracy factor for lattice sums       =   12.000


  Analytic derivatives to be used

  Time limit = Infinity

  Maximum range for interatomic potentials =    100000.000000 Angstroms

  General interatomic potentials :

--------------------------------------------------------------------------------
Atom  Types   Potential      Parameter       Value         Units   Cutoffs(Ang)
  1     2                                                            Min /  Max 
--------------------------------------------------------------------------------
O    c Mg   c Lennard       Lennard-Jones A  1.5000000    eV*Ang^m  0.000  6.000
                            Lennard-Jones B  0.0000000    eV*Ang^n  
                            Exponent m        12          None
                            Exponent n         6          None
--------------------------------------------------------------------------------
O    c Al   c Lennard       Lennard-Jones A  1.5000000    eV*Ang^m  0.000  6.000
                            Lennard-Jones B  0.0000000    eV*Ang^n  
                            Exponent m        12          None
                            Exponent n         6          None
--------------------------------------------------------------------------------
O    c O    c Lennard       Lennard-Jones A  1.5000000    eV*Ang^m  0.000  6.000
                            Lennard-Jones B  0.0000000    eV*Ang^n  
                            Exponent m        12          None
                            Exponent n         6          None
--------------------------------------------------------------------------------
Mg   c Mg   c Lennard       Lennard-Jones A  1.5000000    eV*Ang^m  0.000  6.000
                            Lennard-Jones B  0.0000000    eV*Ang^n  
                            Exponent m        12          None
                            Exponent n         6          None
--------------------------------------------------------------------------------
Mg   c Al   c Lennard       Lennard-Jones A  1.5000000    eV*Ang^m  0.000  6.000
                            Lennard-Jones B  0.0000000    eV*Ang^n  
                            Exponent m        12          None
                            Exponent n         6          None
--------------------------------------------------------------------------------
Al   c Al   c Lennard       Lennard-Jones A  1.5000000    eV*Ang^m  0.000  6.000
                            Lennard-Jones B  0.0000000    eV*Ang^n  
                            Exponent m        12          None
                            Exponent n         6          None
--------------------------------------------------------------------------------
O    c Mg   c Buckingham    Buckingham A     1428.5000    eV        0.000  7.000
                            Buckingham rho  0.29450000    Ang       
                            Buckingham C     0.0000000    eV*Ang^6  
--------------------------------------------------------------------------------
O    c Al   c Buckingham    Buckingham A     1114.9000    eV        0.000  7.000
                            Buckingham rho  0.31180000    Ang       
                            Buckingham C     0.0000000    eV*Ang^6  
--------------------------------------------------------------------------------
O    c O    c Buckingham    Buckingham A     2023.8000    eV        0.000  7.000
                            Buckingham rho  0.26740000    Ang       
                            Buckingham C     0.0000000    eV*Ang^6  
--------------------------------------------------------------------------------

********************************************************************************
*  Output for configuration   1                                                *
********************************************************************************


  Components of enthalpy : 

--------------------------------------------------------------------------------
  Interatomic potentials     =         349.25202923 eV    
  Monopole - monopole (real) =        -180.67426658 eV    
  Monopole - monopole (recip)=        -433.02474055 eV    
  Monopole - monopole (total)=        -613.69900713 eV    
  Pressure*volume            =         125.75581034 eV    
--------------------------------------------------------------------------------
  Total lattice enthalpy     =        -138.69116756 eV    
--------------------------------------------------------------------------------
  Total lattice enthalpy     =          -13381.5776 kJ/(mole unit cells)
--------------------------------------------------------------------------------


  Number of variables =       87

  Maximum number of calculations  =           850
  Maximum Hessian update interval =            10
  Maximum step size               =   1.000000000
  Maximum parameter tolerance     =   0.000010000
  Maximum function  tolerance     =   0.000010000
  Maximum gradient  tolerance     =   0.001000000
  Maximum gradient  component     =   0.010000000

  Cell parameters to be optimised using strains

  Conjugate gradient optimiser to be used

  Lower half triangular hessian to be used

  Minimiser to switch to RFO
  When gradient norm is less than     0.010000

  Start of bulk optimisation :

  Cycle:      0 Energy:      -138.691168  Gnorm:     30.900254  CPU:    0.044
  Cycle:      1 Energy:      -421.703405  Gnorm:     11.183082  CPU:    0.152
  Cycle:      2 Energy:      -502.588565  Gnorm:      6.830395  CPU:    0.217
  Cycle:      3 Energy:      -535.162952  Gnorm:      3.308397  CPU:    0.272
  Cycle:      4 Energy:      -557.365670  Gnorm:      3.791534  CPU:    0.355
  Cycle:      5 Energy:      -570.663361  Gnorm:      2.999733  CPU:    0.410
  Cycle:      6 Energy:      -582.650775  Gnorm:      1.794552  CPU:    0.478
  Cycle:      7 Energy:      -589.089796  Gnorm:      1.467320  CPU:    0.568
  Cycle:      8 Energy:      -594.136244  Gnorm:      1.415124  CPU:    0.660
  Cycle:      9 Energy:      -598.697441  Gnorm:      1.422523  CPU:    0.757
  Cycle:     10 Energy:      -601.515767  Gnorm:      1.035049  CPU:    0.832
  Cycle:     11 Energy:      -604.822693  Gnorm:      1.288904  CPU:    0.895
  Cycle:     12 Energy:      -610.297085  Gnorm:      1.457630  CPU:    0.974
  Cycle:     13 Energy:      -615.066136  Gnorm:      1.411855  CPU:    1.026
  Cycle:     14 Energy:      -618.853028  Gnorm:      1.233160  CPU:    1.089
  Cycle:     15 Energy:      -622.356206  Gnorm:      1.103301  CPU:    1.181
  Cycle:     16 Energy:      -624.254720  Gnorm:      0.980185  CPU:    1.256
  Cycle:     17 Energy:      -626.124587  Gnorm:      0.919949  CPU:    1.350
  Cycle:     18 Energy:      -628.283533  Gnorm:      0.935164  CPU:    1.443
  Cycle:     19 Energy:      -629.854112  Gnorm:      0.778400  CPU:    1.519
  Cycle:     20 Energy:      -630.778123  Gnorm:      0.604807  CPU:    1.594
  Cycle:     21 Energy:      -631.514878  Gnorm:      0.461737  CPU:    1.688
  Cycle:     22 Energy:      -632.150962  Gnorm:      0.416433  CPU:    1.788
  Cycle:     23 Energy:      -632.671844  Gnorm:      0.438103  CPU:    1.887
  Cycle:     24 Energy:      -632.994794  Gnorm:      0.388058  CPU:    1.965
  Cycle:     25 Energy:      -633.337455  Gnorm:      0.369160  CPU:    2.066
  Cycle:     26 Energy:      -633.657104  Gnorm:      0.328520  CPU:    2.168
  Cycle:     27 Energy:      -633.921721  Gnorm:      0.299775  CPU:    2.262
  Cycle:     28 Energy:      -634.142090  Gnorm:      0.312749  CPU:    2.357
  Cycle:     29 Energy:      -634.321916  Gnorm:      0.282197  CPU:    2.439
  Cycle:     30 Energy:      -634.414933  Gnorm:      0.219648  CPU:    2.522
  Cycle:     31 Energy:      -634.537373  Gnorm:      0.225836  CPU:    2.619
  Cycle:     32 Energy:      -634.682968  Gnorm:      0.266926  CPU:    2.719
  Cycle:     33 Energy:      -634.981787  Gnorm:      0.371970  CPU:    2.817
  Cycle:     34 Energy:      -635.398455  Gnorm:      0.661051  CPU:    2.893
  Cycle:     35 Energy:      -635.626166  Gnorm:      0.692654  CPU:    2.988
  Cycle:     36 Energy:      -636.679461  Gnorm:      0.650622  CPU:    3.092
  Cycle:     37 Energy:      -637.595539  Gnorm:      0.622777  CPU:    3.190
  Cycle:     38 Energy:      -638.531454  Gnorm:      0.634417  CPU:    3.283
  Cycle:     39 Energy:      -639.855030  Gnorm:      0.823368  CPU:    3.386
  Cycle:     40 Energy:      -640.779132  Gnorm:      0.640173  CPU:    3.467
  Cycle:     41 Energy:      -641.890797  Gnorm:      0.654126  CPU:    3.562
  Cycle:     42 Energy:      -642.745883  Gnorm:      0.532240  CPU:    3.638
  Cycle:     43 Energy:      -643.655566  Gnorm:      0.642119  CPU:    3.737
  Cycle:     44 Energy:      -644.439070  Gnorm:      0.511780  CPU:    3.849
  Cycle:     45 Energy:      -644.974197  Gnorm:      0.410863  CPU:    3.944
  Cycle:     46 Energy:      -645.312019  Gnorm:      0.347713  CPU:    4.039
  Cycle:     47 Energy:      -645.588207  Gnorm:      0.291345  CPU:    4.139
  Cycle:     48 Energy:      -645.780940  Gnorm:      0.286645  CPU:    4.239
  Cycle:     49 Energy:      -645.976502  Gnorm:      0.234201  CPU:    4.337
  Cycle:     50 Energy:      -646.064643  Gnorm:      0.216452  CPU:    4.415
  Cycle:     51 Energy:      -646.186626  Gnorm:      0.197311  CPU:    4.520
  Cycle:     52 Energy:      -646.288266  Gnorm:      0.187417  CPU:    4.616
  Cycle:     53 Energy:      -646.373057  Gnorm:      0.188952  CPU:    4.713
  Cycle:     54 Energy:      -646.482849  Gnorm:      0.202735  CPU:    4.818
  Cycle:     55 Energy:      -646.611738  Gnorm:      0.179847  CPU:    4.921
  Cycle:     56 Energy:      -646.688537  Gnorm:      0.175469  CPU:    5.004
  Cycle:     57 Energy:      -646.774220  Gnorm:      0.159774  CPU:    5.104
  Cycle:     58 Energy:      -646.848061  Gnorm:      0.153041  CPU:    5.208
  Cycle:     59 Energy:      -646.934932  Gnorm:      0.191965  CPU:    5.311
  Cycle:     60 Energy:      -646.983206  Gnorm:      0.145913  CPU:    5.394
  Cycle:     61 Energy:      -647.047575  Gnorm:      0.159263  CPU:    5.502
  Cycle:     62 Energy:      -647.112746  Gnorm:      0.144083  CPU:    5.581
  Cycle:     63 Energy:      -647.173976  Gnorm:      0.144012  CPU:    5.732
  Cycle:     64 Energy:      -647.262755  Gnorm:      0.172420  CPU:    5.900
  Cycle:     65 Energy:      -647.360454  Gnorm:      0.238790  CPU:    6.024
  Cycle:     66 Energy:      -647.511181  Gnorm:      0.228671  CPU:    6.177
  Cycle:     67 Energy:      -647.669163  Gnorm:      0.280614  CPU:    6.301
  Cycle:     68 Energy:      -647.887397  Gnorm:      0.318715  CPU:    6.456
  Cycle:     69 Energy:      -648.084390  Gnorm:      0.247188  CPU:    6.581
  Cycle:     70 Energy:      -648.179439  Gnorm:      0.205135  CPU:    6.703
  Cycle:     71 Energy:      -648.268575  Gnorm:      0.171918  CPU:    6.854
  Cycle:     72 Energy:      -648.326871  Gnorm:      0.140444  CPU:    7.004
  Cycle:     73 Energy:      -648.378671  Gnorm:      0.125637  CPU:    7.159
  Cycle:     74 Energy:      -648.411007  Gnorm:      0.100585  CPU:    7.280
  Cycle:     75 Energy:      -648.435355  Gnorm:      0.085145  CPU:    7.432
  Cycle:     76 Energy:      -648.454169  Gnorm:      0.082786  CPU:    7.594
  Cycle:     77 Energy:      -648.470754  Gnorm:      0.068337  CPU:    7.746
  Cycle:     78 Energy:      -648.479676  Gnorm:      0.051198  CPU:    7.872
  Cycle:     79 Energy:      -648.485979  Gnorm:      0.052106  CPU:    8.039
  Cycle:     80 Energy:      -648.488695  Gnorm:      0.032424  CPU:    8.198
  Cycle:     81 Energy:      -648.491915  Gnorm:      0.034480  CPU:    8.346
  Cycle:     82 Energy:      -648.494785  Gnorm:      0.032572  CPU:    8.489
  Cycle:     83 Energy:      -648.497209  Gnorm:      0.027073  CPU:    8.621
  Cycle:     84 Energy:      -648.499187  Gnorm:      0.025028  CPU:    8.754
  Cycle:     85 Energy:      -648.500833  Gnorm:      0.023488  CPU:    8.912
  Cycle:     86 Energy:      -648.502250  Gnorm:      0.021837  CPU:    9.034
  Cycle:     87 Energy:      -648.503601  Gnorm:      0.022289  CPU:    9.165
  Cycle:     88 Energy:      -648.504974  Gnorm:      0.021160  CPU:    9.323
  Cycle:     89 Energy:      -648.506148  Gnorm:      0.026717  CPU:    9.450
  Cycle:     90 Energy:      -648.506867  Gnorm:      0.016562  CPU:    9.580
  Cycle:     91 Energy:      -648.507549  Gnorm:      0.014415  CPU:    9.703
  Cycle:     92 Energy:      -648.508071  Gnorm:      0.012969  CPU:    9.828
  Cycle:     93 Energy:      -648.508556  Gnorm:      0.013287  CPU:    9.986
  Cycle:     94 Energy:      -648.509082  Gnorm:      0.013905  CPU:   10.109
  Cycle:     95 Energy:      -648.509636  Gnorm:      0.014338  CPU:   10.269
  Cycle:     96 Energy:      -648.510256  Gnorm:      0.015553  CPU:   10.391
  Cycle:     97 Energy:      -648.510941  Gnorm:      0.015768  CPU:   10.515
  Cycle:     98 Energy:      -648.511559  Gnorm:      0.015039  CPU:   10.640
  Cycle:     99 Energy:      -648.512078  Gnorm:      0.019160  CPU:   10.765
  Cycle:    100 Energy:      -648.512484  Gnorm:      0.013129  CPU:   10.890
  Cycle:    101 Energy:      -648.512916  Gnorm:      0.012374  CPU:   11.015
  Cycle:    102 Energy:      -648.513303  Gnorm:      0.011171  CPU:   11.141
  Cycle:    103 Energy:      -648.513610  Gnorm:      0.009871  CPU:   11.296
  ** Hessian has required structure
  Cycle:    104 Energy:      -648.516096  Gnorm:      0.005304  CPU:   11.643
  ** Hessian has required structure
  Cycle:    105 Energy:      -648.517087  Gnorm:      0.000587  CPU:   11.818
  ** Hessian has required structure


  **** Optimisation achieved ****


  Final enthalpy =    -648.51708930 eV      
  Final Gnorm    =       0.00005884

  Components of enthalpy : 

--------------------------------------------------------------------------------
  Interatomic potentials     =         227.01471985 eV    
  Monopole - monopole (real) =        -518.58592191 eV    
  Monopole - monopole (recip)=        -487.12830665 eV    
  Monopole - monopole (total)=       -1005.71422856 eV    
  Pressure*volume            =         130.18241941 eV    
--------------------------------------------------------------------------------
  Total lattice enthalpy     =        -648.51708930 eV    
--------------------------------------------------------------------------------
  Total lattice enthalpy     =          -62571.9856 kJ/(mole unit cells)
--------------------------------------------------------------------------------

  Final fractional coordinates of atoms :

--------------------------------------------------------------------------------
   No.  Atomic        x           y          z          Radius
        Label       (Frac)      (Frac)     (Frac)       (Angs) 
--------------------------------------------------------------------------------
     1  Al    c     0.922449    0.190372    0.110381    0.000000
     2  Al    c     0.770774    0.679847    0.253020    0.000000
     3  Al    c     0.272146    0.168987    0.261421    0.000000
     4  Al    c     0.270122    0.154375    0.763969    0.000000
     5  Al    c     0.567133    0.245362    0.474881    0.000000
     6  Al    c     0.419503    0.706225    0.108762    0.000000
     7  Al    c     0.773418    0.666016    0.753564    0.000000
     8  Al    c     0.923217    0.194673    0.601394    0.000000
     9  Mg    c     0.084904    0.698532    0.950885    0.000000
    10  Mg    c     0.420172    0.712642    0.605721    0.000000
    11  Mg    c     0.569806    0.244446    0.945995    0.000000
    12  Mg    c     0.079013    0.706499    0.453385    0.000000
    13  O     c     0.808886    0.203708    0.370143    0.000000
    14  O     c     0.438317    0.341506    0.246933    0.000000
    15  O     c     0.505377    0.776291    0.313403    0.000000
    16  O     c     0.695173    0.568591    0.019569    0.000000
    17  O     c     0.156604    0.886689    0.200221    0.000000
    18  O     c     0.030493    0.430108    0.174364    0.000000
    19  O     c     0.857924    0.604050    0.490944    0.000000
    20  O     c     0.550039    0.954701    0.658882    0.000000
    21  O     c     0.186574    0.094423    0.522502    0.000000
    22  O     c     0.312402    0.443859    0.595837    0.000000
    23  O     c     0.940806    0.836540    0.714503    0.000000
    24  O     c     0.999615    0.271218    0.832500    0.000000
    25  O     c     0.663531    0.358699    0.682592    0.000000
    26  O     c     0.353199    0.134233    0.994346    0.000000
    27  O     c     0.334314    0.724729    0.884092    0.000000
    28  O     c     0.808424    0.967235    0.088111    0.000000
--------------------------------------------------------------------------------

  Final Cartesian lattice vectors (Angstroms) :

        6.968841    1.350597    0.541220
        1.316653    4.881804    0.874583
        0.482160    0.681717    6.604701


  Final cell parameters and derivatives :

--------------------------------------------------------------------------------
       a            7.119114 Angstrom     dE/de1(xx)    -0.000111 eV/strain
       b            5.131323 Angstrom     dE/de2(yy)     0.000813 eV/strain
       c            6.657273 Angstrom     dE/de3(zz)    -0.000169 eV/strain
       alpha       73.435155 Degrees      dE/de4(yz)    -0.001888 eV/strain
       beta        80.459341 Degrees      dE/de5(xz)    -0.001500 eV/strain
       gamma       63.600868 Degrees      dE/de6(xy)    -0.001468 eV/strain
--------------------------------------------------------------------------------

  Primitive cell volume =           208.576841 Angs**3

  Density of cell =      4.530678 g/cm**3

  Non-primitive cell volume =           208.576841 Angs**3


  Final internal derivatives :

--------------------------------------------------------------------------------
   No.  Atomic          a             b             c           Radius
        Label          (eV)          (eV)          (eV)        (eV/Angs)
--------------------------------------------------------------------------------
      1 Al    c       0.000000      0.000000      0.000000      0.000000
      2 Al    c       0.000258     -0.000033     -0.000246      0.000000
      3 Al    c      -0.000019      0.000170     -0.000365      0.000000
      4 Al    c      -0.000076      0.000096      0.000135      0.000000
      5 Al    c       0.000234      0.000168      0.000251      0.000000
      6 Al    c      -0.000453     -0.000725     -0.000719      0.000000
      7 Al    c       0.000464     -0.000042      0.000129      0.000000
      8 Al    c      -0.000285     -0.000573      0.000240      0.000000
      9 Mg    c       0.001044     -0.001231     -0.002125      0.000000
     10 Mg    c      -0.000154     -0.000023     -0.000001      0.000000
     11 Mg    c      -0.000081     -0.000307      0.000006      0.000000
     12 Mg    c       0.000031     -0.000097     -0.000195      0.000000
     13 O     c      -0.000209     -0.000264     -0.000295      0.000000
     14 O     c       0.000146     -0.000117      0.000196      0.000000
     15 O     c       0.000252     -0.000087     -0.000145      0.000000
     16 O     c      -0.000380      0.000285     -0.000211      0.000000
     17 O     c       0.000112      0.000497      0.001091      0.000000
     18 O     c       0.000690     -0.000037      0.000207      0.000000
     19 O     c       0.000260      0.000214      0.000560      0.000000
     20 O     c       0.000021     -0.000012      0.000072      0.000000
     21 O     c       0.000003     -0.000042     -0.000275      0.000000
     22 O     c       0.000033     -0.000038      0.000154      0.000000
     23 O     c       0.000176     -0.000193      0.000167      0.000000
     24 O     c       0.000649      0.000249     -0.000022      0.000000
     25 O     c      -0.000263     -0.000263      0.000104      0.000000
     26 O     c       0.000290      0.000043     -0.000176      0.000000
     27 O     c      -0.001332     -0.000114      0.000897      0.000000
     28 O     c      -0.000851      0.000331      0.000636      0.000000
--------------------------------------------------------------------------------
  Maximum abs         0.001332      0.001231      0.002125      0.000000
--------------------------------------------------------------------------------


  Time to end of optimisation =      11.9593 seconds


  Peak dynamic memory used =       2.03 MB 


  Timing analysis for GULP :

--------------------------------------------------------------------------------
  Task / Subroutine                                          Time (Seconds)
--------------------------------------------------------------------------------
  Calculation of reciprocal space energy and derivatives          0.3525
  Calculation of real space energy and derivatives               11.5021
  Calculation and manipulation of Hessian matrix                  0.0586
  Global summation overhead                                       0.0010
--------------------------------------------------------------------------------
  Total CPU time                                                 11.9593
--------------------------------------------------------------------------------


  Job Finished at 16:51.03 11th June       2024                               

