********************************************************************************
*                       GENERAL UTILITY LATTICE PROGRAM                        *
*                                 Julian Gale                                  *
*                       Curtin Institute for Computation                       *
*                    School of Molecular and Life Sciences                     *
*                    Curtin University, Western Australia                      *
********************************************************************************
* Version = 6.0.0 * Last modified =  12th July 2021                            *
********************************************************************************
*  optimise     - perform optimisation run                                     *
*  conp         - constant pressure calculation                                *
*  nosymmetry   - turn off symmetry after initial structure generation         *
*  conjugate    - use conjugate gradients minimiser                            *
********************************************************************************

  Job Started  at 16:50.39 11th June       2024                               

  Number of CPUs =     1


  Total number of configurations input =      1

********************************************************************************
*  Input for Configuration =   1                                               *
********************************************************************************

  Formula = Al8Mg4O16                                                   

  Number of irreducible atoms/shells =      28


  Total number atoms/shells =      28

  Dimensionality = 3               :  Bulk   



  Cartesian lattice vectors (Angstroms) :

        7.126805   -0.148808   -0.120464
        0.107904    4.797605   -0.069437
       -0.628722    0.000755    5.900846

  Cell parameters (Angstroms/Degrees):

  a =       7.1294    alpha =  90.9535
  b =       4.7993    beta  =  97.0488
  c =       5.9342    gamma =  89.8938

  Initial cell volume =         201.484576 Angs**3

  Temperature of configuration =   0.00     K 

  Pressure of configuration =       100.000 GPa 

  Fractional coordinates of asymmetric unit :

--------------------------------------------------------------------------------
   No.  Atomic       x           y          z         Charge      Occupancy
        Label      (Frac)      (Frac)     (Frac)        (e)         (Frac)  
--------------------------------------------------------------------------------
      1 Al    c    0.044980    0.365998    0.284383     3.00000    1.000000    
      2 Al    c    0.476388 *  0.906111 *  0.982332 *   3.00000    1.000000    
      3 Al    c    0.147893 *  0.904640 *  0.658159 *   3.00000    1.000000    
      4 Al    c    0.582438 *  0.375916 *  0.287102 *   3.00000    1.000000    
      5 Al    c    0.250804 *  0.375328 *  0.031939 *   3.00000    1.000000    
      6 Al    c    0.849133 *  0.670060 *  0.550289 *   3.00000    1.000000    
      7 Al    c    0.867744 *  0.716547 *  0.109794 *   3.00000    1.000000    
      8 Al    c    0.058145 *  0.446885 *  0.181958 *   3.00000    1.000000    
      9 Mg    c    0.350174 *  0.903710 *  0.327904 *   2.00000    1.000000    
     10 Mg    c    0.408555 *  0.367789 *  0.645330 *   2.00000    1.000000    
     11 Mg    c    0.973366 *  0.245952 *  0.800186 *   2.00000    1.000000    
     12 Mg    c    0.739134 *  0.382751 *  0.671116 *   2.00000    1.000000    
     13 O     c    0.040669 *  0.163518 *  0.507316 *  -2.00000    1.000000    
     14 O     c    0.582283 *  0.580610 *  0.507500 *  -2.00000    1.000000    
     15 O     c    0.183725 *  0.025400 *  0.914512 *  -2.00000    1.000000    
     16 O     c    0.423460 *  0.690841 *  0.108184 *  -2.00000    1.000000    
     17 O     c    0.255111 *  0.577804 *  0.809002 *  -2.00000    1.000000    
     18 O     c    0.296796 *  0.248459 *  0.254387 *  -2.00000    1.000000    
     19 O     c    0.112057 *  0.715928 *  0.401806 *  -2.00000    1.000000    
     20 O     c    0.416130 *  0.011040 *  0.668060 *  -2.00000    1.000000    
     21 O     c    0.540644 *  0.202442 *  0.005459 *  -2.00000    1.000000    
     22 O     c    0.721378 *  0.414398 *  0.002112 *  -2.00000    1.000000    
     23 O     c    0.765713 *  0.998356 *  0.965237 *  -2.00000    1.000000    
     24 O     c    0.685308 *  0.911753 *  0.611007 *  -2.00000    1.000000    
     25 O     c    0.047047 *  0.047047 *  0.604602 *  -2.00000    1.000000    
     26 O     c    0.907826 *  0.188359 *  0.088853 *  -2.00000    1.000000    
     27 O     c    0.796713 *  0.119830 *  0.423484 *  -2.00000    1.000000    
     28 O     c    0.062195 *  0.988295 *  0.232671 *  -2.00000    1.000000    
--------------------------------------------------------------------------------



********************************************************************************
*  General input information                                                   *
********************************************************************************

  Species output for all configurations : 

--------------------------------------------------------------------------------
  Species    Type    Atomic    Atomic    Charge       Radii (Angs)     Library
                     Number     Mass       (e)     Cova   Ionic  VDW   Symbol
--------------------------------------------------------------------------------
    Mg       Core       12      24.31   2.000000   1.100  0.000  1.640          
    Al       Core       13      26.98   3.000000   1.350  0.000  2.050          
    O        Core        8      16.00  -2.000000   0.730  0.000  1.360          
--------------------------------------------------------------------------------


  Lattice summation method               =    Ewald          (3-D)
                                         =    Parry          (2-D)
                                         =    Saunders et al (1-D)
  Accuracy factor for lattice sums       =   12.000


  Analytic derivatives to be used

  Time limit = Infinity

  Maximum range for interatomic potentials =    100000.000000 Angstroms

  General interatomic potentials :

--------------------------------------------------------------------------------
Atom  Types   Potential      Parameter       Value         Units   Cutoffs(Ang)
  1     2                                                            Min /  Max 
--------------------------------------------------------------------------------
O    c Mg   c Lennard       Lennard-Jones A  1.5000000    eV*Ang^m  0.000  6.000
                            Lennard-Jones B  0.0000000    eV*Ang^n  
                            Exponent m        12          None
                            Exponent n         6          None
--------------------------------------------------------------------------------
O    c Al   c Lennard       Lennard-Jones A  1.5000000    eV*Ang^m  0.000  6.000
                            Lennard-Jones B  0.0000000    eV*Ang^n  
                            Exponent m        12          None
                            Exponent n         6          None
--------------------------------------------------------------------------------
O    c O    c Lennard       Lennard-Jones A  1.5000000    eV*Ang^m  0.000  6.000
                            Lennard-Jones B  0.0000000    eV*Ang^n  
                            Exponent m        12          None
                            Exponent n         6          None
--------------------------------------------------------------------------------
Mg   c Mg   c Lennard       Lennard-Jones A  1.5000000    eV*Ang^m  0.000  6.000
                            Lennard-Jones B  0.0000000    eV*Ang^n  
                            Exponent m        12          None
                            Exponent n         6          None
--------------------------------------------------------------------------------
Mg   c Al   c Lennard       Lennard-Jones A  1.5000000    eV*Ang^m  0.000  6.000
                            Lennard-Jones B  0.0000000    eV*Ang^n  
                            Exponent m        12          None
                            Exponent n         6          None
--------------------------------------------------------------------------------
Al   c Al   c Lennard       Lennard-Jones A  1.5000000    eV*Ang^m  0.000  6.000
                            Lennard-Jones B  0.0000000    eV*Ang^n  
                            Exponent m        12          None
                            Exponent n         6          None
--------------------------------------------------------------------------------
O    c Mg   c Buckingham    Buckingham A     1428.5000    eV        0.000  7.000
                            Buckingham rho  0.29450000    Ang       
                            Buckingham C     0.0000000    eV*Ang^6  
--------------------------------------------------------------------------------
O    c Al   c Buckingham    Buckingham A     1114.9000    eV        0.000  7.000
                            Buckingham rho  0.31180000    Ang       
                            Buckingham C     0.0000000    eV*Ang^6  
--------------------------------------------------------------------------------
O    c O    c Buckingham    Buckingham A     2023.8000    eV        0.000  7.000
                            Buckingham rho  0.26740000    Ang       
                            Buckingham C     0.0000000    eV*Ang^6  
--------------------------------------------------------------------------------

********************************************************************************
*  Output for configuration   1                                                *
********************************************************************************


  Components of enthalpy : 

--------------------------------------------------------------------------------
  Interatomic potentials     =         456.69986828 eV    
  Monopole - monopole (real) =        -210.73762781 eV    
  Monopole - monopole (recip)=        -472.94160601 eV    
  Monopole - monopole (total)=        -683.67923383 eV    
  Pressure*volume            =         125.75581033 eV    
--------------------------------------------------------------------------------
  Total lattice enthalpy     =        -101.22355522 eV    
--------------------------------------------------------------------------------
  Total lattice enthalpy     =           -9766.5257 kJ/(mole unit cells)
--------------------------------------------------------------------------------


  Number of variables =       87

  Maximum number of calculations  =           850
  Maximum Hessian update interval =            10
  Maximum step size               =   1.000000000
  Maximum parameter tolerance     =   0.000010000
  Maximum function  tolerance     =   0.000010000
  Maximum gradient  tolerance     =   0.001000000
  Maximum gradient  component     =   0.010000000

  Cell parameters to be optimised using strains

  Conjugate gradient optimiser to be used

  Lower half triangular hessian to be used

  Minimiser to switch to RFO
  When gradient norm is less than     0.010000

  Start of bulk optimisation :

  Cycle:      0 Energy:      -101.223555  Gnorm:     97.889980  CPU:    0.042
  Cycle:      1 Energy:      -383.522617  Gnorm:     15.671526  CPU:    0.142
  Cycle:      2 Energy:      -501.497357  Gnorm:      6.300364  CPU:    0.195
  Cycle:      3 Energy:      -555.476776  Gnorm:      4.413123  CPU:    0.257
  Cycle:      4 Energy:      -578.901950  Gnorm:      3.306898  CPU:    0.325
  Cycle:      5 Energy:      -592.037189  Gnorm:      3.060067  CPU:    0.392
  Cycle:      6 Energy:      -604.767725  Gnorm:      2.023399  CPU:    0.458
  Cycle:      7 Energy:      -611.136968  Gnorm:      1.646021  CPU:    0.536
  Cycle:      8 Energy:      -615.180792  Gnorm:      1.365267  CPU:    0.632
  Cycle:      9 Energy:      -617.819281  Gnorm:      1.136300  CPU:    0.737
  Cycle:     10 Energy:      -618.996815  Gnorm:      0.819763  CPU:    0.809
  Cycle:     11 Energy:      -620.199640  Gnorm:      0.816685  CPU:    0.907
  Cycle:     12 Energy:      -621.502069  Gnorm:      0.711685  CPU:    1.002
  Cycle:     13 Energy:      -622.552234  Gnorm:      0.768969  CPU:    1.093
  Cycle:     14 Energy:      -623.816859  Gnorm:      0.631718  CPU:    1.191
  Cycle:     15 Energy:      -624.901840  Gnorm:      0.776529  CPU:    1.294
  Cycle:     16 Energy:      -625.744133  Gnorm:      0.709504  CPU:    1.369
  Cycle:     17 Energy:      -626.603050  Gnorm:      0.630492  CPU:    1.470
  Cycle:     18 Energy:      -627.488566  Gnorm:      0.708158  CPU:    1.570
  Cycle:     19 Energy:      -628.542916  Gnorm:      0.784585  CPU:    1.662
  Cycle:     20 Energy:      -629.172815  Gnorm:      0.674851  CPU:    1.734
  Cycle:     21 Energy:      -629.975459  Gnorm:      0.517266  CPU:    1.839
  Cycle:     22 Energy:      -630.967638  Gnorm:      0.711543  CPU:    1.931
  Cycle:     23 Energy:      -632.109057  Gnorm:      0.686390  CPU:    1.995
  Cycle:     24 Energy:      -633.104038  Gnorm:      0.677324  CPU:    2.047
  Cycle:     25 Energy:      -633.825748  Gnorm:      0.564643  CPU:    2.100
  Cycle:     26 Energy:      -634.386401  Gnorm:      0.536094  CPU:    2.167
  Cycle:     27 Energy:      -634.951207  Gnorm:      0.488782  CPU:    2.232
  Cycle:     28 Energy:      -635.305080  Gnorm:      0.375011  CPU:    2.284
  Cycle:     29 Energy:      -635.557481  Gnorm:      0.334943  CPU:    2.348
  Cycle:     30 Energy:      -635.672267  Gnorm:      0.236381  CPU:    2.404
  Cycle:     31 Energy:      -635.793178  Gnorm:      0.261383  CPU:    2.491
  Cycle:     32 Energy:      -635.937111  Gnorm:      0.248154  CPU:    2.571
  Cycle:     33 Energy:      -636.069054  Gnorm:      0.274459  CPU:    2.662
  Cycle:     34 Energy:      -636.299525  Gnorm:      0.362962  CPU:    2.769
  Cycle:     35 Energy:      -636.561368  Gnorm:      0.341363  CPU:    2.859
  Cycle:     36 Energy:      -636.889460  Gnorm:      0.357641  CPU:    2.952
  Cycle:     37 Energy:      -637.304253  Gnorm:      0.495801  CPU:    3.042
  Cycle:     38 Energy:      -637.652941  Gnorm:      0.405850  CPU:    3.125
  Cycle:     39 Energy:      -638.017095  Gnorm:      0.426742  CPU:    3.244
  Cycle:     40 Energy:      -638.220556  Gnorm:      0.321701  CPU:    3.325
  Cycle:     41 Energy:      -638.506294  Gnorm:      0.384708  CPU:    3.429
  Cycle:     42 Energy:      -638.803891  Gnorm:      0.340960  CPU:    3.512
  Cycle:     43 Energy:      -639.172125  Gnorm:      0.381948  CPU:    3.606
  Cycle:     44 Energy:      -639.625587  Gnorm:      0.401917  CPU:    3.756
  Cycle:     45 Energy:      -639.984702  Gnorm:      0.475726  CPU:    3.830
  Cycle:     46 Energy:      -640.458861  Gnorm:      0.475458  CPU:    3.924
  Cycle:     47 Energy:      -641.019632  Gnorm:      0.509019  CPU:    4.020
  Cycle:     48 Energy:      -641.528326  Gnorm:      0.534120  CPU:    4.099
  Cycle:     49 Energy:      -642.142888  Gnorm:      0.458590  CPU:    4.193
  Cycle:     50 Energy:      -642.436908  Gnorm:      0.395886  CPU:    4.272
  Cycle:     51 Energy:      -642.739983  Gnorm:      0.332779  CPU:    4.371
  Cycle:     52 Energy:      -643.003448  Gnorm:      0.281109  CPU:    4.468
  Cycle:     53 Energy:      -643.209595  Gnorm:      0.280207  CPU:    4.648
  Cycle:     54 Energy:      -643.409952  Gnorm:      0.330517  CPU:    4.850
  Cycle:     55 Energy:      -643.631907  Gnorm:      0.293438  CPU:    4.943
  Cycle:     56 Energy:      -643.855790  Gnorm:      0.309226  CPU:    5.055
  Cycle:     57 Energy:      -644.007477  Gnorm:      0.248003  CPU:    5.147
  Cycle:     58 Energy:      -644.144855  Gnorm:      0.208636  CPU:    5.268
  Cycle:     59 Energy:      -644.259745  Gnorm:      0.180394  CPU:    5.372
  Cycle:     60 Energy:      -644.309901  Gnorm:      0.148794  CPU:    5.451
  Cycle:     61 Energy:      -644.380389  Gnorm:      0.161976  CPU:    5.550
  Cycle:     62 Energy:      -644.424084  Gnorm:      0.118266  CPU:    5.630
  Cycle:     63 Energy:      -644.456783  Gnorm:      0.114011  CPU:    5.733
  Cycle:     64 Energy:      -644.487578  Gnorm:      0.111186  CPU:    5.830
  Cycle:     65 Energy:      -644.509602  Gnorm:      0.091116  CPU:    5.921
  Cycle:     66 Energy:      -644.536808  Gnorm:      0.105548  CPU:    6.033
  Cycle:     67 Energy:      -644.567887  Gnorm:      0.100346  CPU:    6.120
  Cycle:     68 Energy:      -644.608886  Gnorm:      0.107302  CPU:    6.235
  Cycle:     69 Energy:      -644.647983  Gnorm:      0.146218  CPU:    6.323
  Cycle:     70 Energy:      -644.672555  Gnorm:      0.102201  CPU:    6.436
  Cycle:     71 Energy:      -644.699855  Gnorm:      0.105551  CPU:    6.535
  Cycle:     72 Energy:      -644.723290  Gnorm:      0.082644  CPU:    6.626
  Cycle:     73 Energy:      -644.747212  Gnorm:      0.086846  CPU:    6.723
  Cycle:     74 Energy:      -644.764317  Gnorm:      0.084412  CPU:    6.808
  Cycle:     75 Energy:      -644.787277  Gnorm:      0.094825  CPU:    6.909
  Cycle:     76 Energy:      -644.809492  Gnorm:      0.104084  CPU:    7.002
  Cycle:     77 Energy:      -644.843308  Gnorm:      0.126630  CPU:    7.104
  Cycle:     78 Energy:      -644.907304  Gnorm:      0.167396  CPU:    7.201
  Cycle:     79 Energy:      -644.968469  Gnorm:      0.194422  CPU:    7.283
  Cycle:     80 Energy:      -645.017007  Gnorm:      0.159385  CPU:    7.371
  Cycle:     81 Energy:      -645.083599  Gnorm:      0.135201  CPU:    7.478
  Cycle:     82 Energy:      -645.130595  Gnorm:      0.121920  CPU:    7.576
  Cycle:     83 Energy:      -645.160694  Gnorm:      0.105276  CPU:    7.660
  Cycle:     84 Energy:      -645.189117  Gnorm:      0.107353  CPU:    7.743
  Cycle:     85 Energy:      -645.224288  Gnorm:      0.112749  CPU:    7.844
  Cycle:     86 Energy:      -645.263119  Gnorm:      0.123715  CPU:    7.945
  Cycle:     87 Energy:      -645.320158  Gnorm:      0.149648  CPU:    8.051
  Cycle:     88 Energy:      -645.380416  Gnorm:      0.130574  CPU:    8.134
  Cycle:     89 Energy:      -645.426763  Gnorm:      0.140549  CPU:    8.244
  Cycle:     90 Energy:      -645.452865  Gnorm:      0.112385  CPU:    8.329
  Cycle:     91 Energy:      -645.500656  Gnorm:      0.132811  CPU:    8.437
  Cycle:     92 Energy:      -645.541132  Gnorm:      0.103470  CPU:    8.518
  Cycle:     93 Energy:      -645.568023  Gnorm:      0.100686  CPU:    8.617
  Cycle:     94 Energy:      -645.592619  Gnorm:      0.097641  CPU:    8.721
  Cycle:     95 Energy:      -645.618484  Gnorm:      0.096536  CPU:    8.820
  Cycle:     96 Energy:      -645.649151  Gnorm:      0.107094  CPU:    8.921
  Cycle:     97 Energy:      -645.685245  Gnorm:      0.117826  CPU:    9.020
  Cycle:     98 Energy:      -645.733916  Gnorm:      0.146025  CPU:    9.120
  Cycle:     99 Energy:      -645.787025  Gnorm:      0.186010  CPU:    9.201
  Cycle:    100 Energy:      -645.839901  Gnorm:      0.152220  CPU:    9.282
  Cycle:    101 Energy:      -645.899154  Gnorm:      0.148601  CPU:    9.384
  Cycle:    102 Energy:      -645.960269  Gnorm:      0.158152  CPU:    9.486
  Cycle:    103 Energy:      -646.035945  Gnorm:      0.167042  CPU:    9.586
  Cycle:    104 Energy:      -646.111906  Gnorm:      0.186050  CPU:    9.667
  Cycle:    105 Energy:      -646.199604  Gnorm:      0.181083  CPU:    9.767
  Cycle:    106 Energy:      -646.277681  Gnorm:      0.166482  CPU:    9.866
  Cycle:    107 Energy:      -646.353073  Gnorm:      0.143837  CPU:    9.965
  Cycle:    108 Energy:      -646.396585  Gnorm:      0.105602  CPU:   10.045
  Cycle:    109 Energy:      -646.424375  Gnorm:      0.121160  CPU:   10.143
  Cycle:    110 Energy:      -646.439663  Gnorm:      0.083959  CPU:   10.224
  Cycle:    111 Energy:      -646.470768  Gnorm:      0.098964  CPU:   10.322
  Cycle:    112 Energy:      -646.495670  Gnorm:      0.072414  CPU:   10.402
  Cycle:    113 Energy:      -646.509100  Gnorm:      0.059015  CPU:   10.482
  Cycle:    114 Energy:      -646.517563  Gnorm:      0.047748  CPU:   10.587
  Cycle:    115 Energy:      -646.522249  Gnorm:      0.046199  CPU:   10.665
  Cycle:    116 Energy:      -646.527417  Gnorm:      0.038676  CPU:   10.776
  Cycle:    117 Energy:      -646.530937  Gnorm:      0.036544  CPU:   10.874
  Cycle:    118 Energy:      -646.534538  Gnorm:      0.032422  CPU:   10.960
  Cycle:    119 Energy:      -646.536512  Gnorm:      0.030690  CPU:   11.068
  Cycle:    120 Energy:      -646.537652  Gnorm:      0.022570  CPU:   11.181
  Cycle:    121 Energy:      -646.539031  Gnorm:      0.021433  CPU:   11.335
  Cycle:    122 Energy:      -646.540167  Gnorm:      0.020765  CPU:   11.436
  Cycle:    123 Energy:      -646.541463  Gnorm:      0.020579  CPU:   11.535
  Cycle:    124 Energy:      -646.542272  Gnorm:      0.018361  CPU:   11.619
  Cycle:    125 Energy:      -646.543153  Gnorm:      0.017592  CPU:   11.700
  Cycle:    126 Energy:      -646.543967  Gnorm:      0.015968  CPU:   11.782
  Cycle:    127 Energy:      -646.544947  Gnorm:      0.015198  CPU:   11.880
  Cycle:    128 Energy:      -646.545624  Gnorm:      0.011848  CPU:   11.960
  Cycle:    129 Energy:      -646.546317  Gnorm:      0.016910  CPU:   12.040
  Cycle:    130 Energy:      -646.546601  Gnorm:      0.009868  CPU:   12.151
  ** Hessian has required structure
  Cycle:    131 Energy:      -646.548286  Gnorm:      0.003169  CPU:   12.465
  ** Hessian has required structure
  Cycle:    132 Energy:      -646.548532  Gnorm:      0.000478  CPU:   12.568
  ** Hessian has required structure


  **** Optimisation achieved ****


  Final enthalpy =    -646.54853542 eV      
  Final Gnorm    =       0.00006485

  Components of enthalpy : 

--------------------------------------------------------------------------------
  Interatomic potentials     =         221.10985024 eV    
  Monopole - monopole (real) =        -506.43544035 eV    
  Monopole - monopole (recip)=        -489.51657953 eV    
  Monopole - monopole (total)=        -995.95201988 eV    
  Pressure*volume            =         128.29363422 eV    
--------------------------------------------------------------------------------
  Total lattice enthalpy     =        -646.54853542 eV    
--------------------------------------------------------------------------------
  Total lattice enthalpy     =          -62382.0503 kJ/(mole unit cells)
--------------------------------------------------------------------------------

  Final fractional coordinates of atoms :

--------------------------------------------------------------------------------
   No.  Atomic        x           y          z          Radius
        Label       (Frac)      (Frac)     (Frac)       (Angs) 
--------------------------------------------------------------------------------
     1  Al    c     0.044980    0.365998    0.284383    0.000000
     2  Al    c     0.371719    0.848377    0.910563    0.000000
     3  Al    c     0.086126    0.907135    0.490383    0.000000
     4  Al    c     0.711698    0.407743    0.415805    0.000000
     5  Al    c     0.403297    0.346572    0.100504    0.000000
     6  Al    c     0.704794    0.883924    0.669708    0.000000
     7  Al    c     0.714433    0.907125    0.182855    0.000000
     8  Al    c     0.999728    0.860176    0.981080    0.000000
     9  Mg    c     0.388571    0.804615    0.409033    0.000000
    10  Mg    c     0.379721    0.311363    0.630828    0.000000
    11  Mg    c     0.052488    0.401130    0.766016    0.000000
    12  Mg    c     0.730889    0.370966    0.902872    0.000000
    13  O     c     0.120804    0.242433    0.554271    0.000000
    14  O     c     0.593898    0.644537    0.453516    0.000000
    15  O     c     0.251562    0.089422    0.938089    0.000000
    16  O     c     0.540999    0.030695    0.095680    0.000000
    17  O     c     0.480202    0.617897    0.831004    0.000000
    18  O     c     0.292263    0.559364    0.167431    0.000000
    19  O     c     0.979947    0.577976    0.420959    0.000000
    20  O     c     0.234883    0.779142    0.682125    0.000000
    21  O     c     0.342222    0.131861    0.353264    0.000000
    22  O     c     0.682827    0.559211    0.132991    0.000000
    23  O     c     0.830320    0.052027    0.892497    0.000000
    24  O     c     0.584030    0.166159    0.675533    0.000000
    25  O     c     0.875442    0.741095    0.706859    0.000000
    26  O     c     0.992552    0.527693    0.028269    0.000000
    27  O     c     0.765488    0.124852    0.392980    0.000000
    28  O     c     0.986012    0.011325    0.219894    0.000000
--------------------------------------------------------------------------------

  Final Cartesian lattice vectors (Angstroms) :

        7.243993   -1.959301    0.347484
       -1.097608    5.150352    0.375469
       -0.236935    0.697839    5.890926


  Final cell parameters and derivatives :

--------------------------------------------------------------------------------
       a            7.512326 Angstrom     dE/de1(xx)     0.000435 eV/strain
       b            5.279379 Angstrom     dE/de2(yy)     0.000057 eV/strain
       c            5.936845 Angstrom     dE/de3(zz)     0.000196 eV/strain
       alpha       78.840661 Degrees      dE/de4(yz)    -0.001165 eV/strain
       beta        91.331854 Degrees      dE/de5(xz)    -0.000591 eV/strain
       gamma      116.848071 Degrees      dE/de6(xy)     0.000890 eV/strain
--------------------------------------------------------------------------------

  Primitive cell volume =           205.550650 Angs**3

  Density of cell =      4.597381 g/cm**3

  Non-primitive cell volume =           205.550650 Angs**3


  Final internal derivatives :

--------------------------------------------------------------------------------
   No.  Atomic          a             b             c           Radius
        Label          (eV)          (eV)          (eV)        (eV/Angs)
--------------------------------------------------------------------------------
      1 Al    c       0.000000      0.000000      0.000000      0.000000
      2 Al    c      -0.000298     -0.000103     -0.000520      0.000000
      3 Al    c       0.000148      0.000268     -0.000679      0.000000
      4 Al    c      -0.000283      0.000216     -0.000381      0.000000
      5 Al    c       0.000012     -0.000005      0.000735      0.000000
      6 Al    c       0.000121     -0.000422      0.000178      0.000000
      7 Al    c       0.000050     -0.000271      0.000456      0.000000
      8 Al    c       0.001296     -0.000569      0.000464      0.000000
      9 Mg    c      -0.000761      0.000076      0.000208      0.000000
     10 Mg    c      -0.000054      0.000051     -0.000513      0.000000
     11 Mg    c       0.000768     -0.000528      0.001252      0.000000
     12 Mg    c       0.000336      0.000323     -0.000434      0.000000
     13 O     c       0.001455     -0.000604      0.003258      0.000000
     14 O     c       0.000518      0.000062      0.000431      0.000000
     15 O     c       0.000013      0.000154      0.000363      0.000000
     16 O     c      -0.000276      0.000357      0.000041      0.000000
     17 O     c       0.000657     -0.000411     -0.000024      0.000000
     18 O     c       0.000561     -0.000471     -0.000103      0.000000
     19 O     c      -0.000202      0.000418     -0.001168      0.000000
     20 O     c      -0.000405     -0.000694      0.000398      0.000000
     21 O     c       0.000201     -0.000078     -0.000247      0.000000
     22 O     c      -0.000295     -0.000249     -0.000113      0.000000
     23 O     c      -0.000204      0.000723     -0.000614      0.000000
     24 O     c       0.000064      0.000176     -0.000070      0.000000
     25 O     c      -0.000193     -0.000362     -0.000486      0.000000
     26 O     c      -0.000607      0.000347     -0.000639      0.000000
     27 O     c      -0.000492      0.000062      0.000153      0.000000
     28 O     c       0.000163     -0.000064     -0.000776      0.000000
--------------------------------------------------------------------------------
  Maximum abs         0.001455      0.000723      0.003258      0.000000
--------------------------------------------------------------------------------


  Time to end of optimisation =      12.6729 seconds


  Peak dynamic memory used =       2.03 MB 


  Timing analysis for GULP :

--------------------------------------------------------------------------------
  Task / Subroutine                                          Time (Seconds)
--------------------------------------------------------------------------------
  Calculation of reciprocal space energy and derivatives          0.4286
  Calculation of real space energy and derivatives               12.1179
  Calculation and manipulation of Hessian matrix                  0.0663
  Global summation overhead                                       0.0013
--------------------------------------------------------------------------------
  Total CPU time                                                 12.6730
--------------------------------------------------------------------------------


  Job Finished at 16:50.51 11th June       2024                               

