********************************************************************************
*                       GENERAL UTILITY LATTICE PROGRAM                        *
*                                 Julian Gale                                  *
*                       Curtin Institute for Computation                       *
*                    School of Molecular and Life Sciences                     *
*                    Curtin University, Western Australia                      *
********************************************************************************
* Version = 6.0.0 * Last modified =  12th July 2021                            *
********************************************************************************
*  optimise     - perform optimisation run                                     *
*  conp         - constant pressure calculation                                *
*  nosymmetry   - turn off symmetry after initial structure generation         *
*  conjugate    - use conjugate gradients minimiser                            *
********************************************************************************

  Job Started  at 16:45.28 11th June       2024                               

  Number of CPUs =     1


  Total number of configurations input =      1

********************************************************************************
*  Input for Configuration =   1                                               *
********************************************************************************

  Formula = Al8Mg4O16                                                   

  Number of irreducible atoms/shells =      28


  Total number atoms/shells =      28

  Dimensionality = 3               :  Bulk   



  Cartesian lattice vectors (Angstroms) :

        5.039856    0.000000    0.000000
        0.000000    5.039856    0.000000
        0.000000    0.000000    7.932417

  Cell parameters (Angstroms/Degrees):

  a =       5.0399    alpha =  90.0000
  b =       5.0399    beta  =  90.0000
  c =       7.9324    gamma =  90.0000

  Initial cell volume =         201.484576 Angs**3

  Temperature of configuration =   0.00     K 

  Pressure of configuration =       100.000 GPa 

  Fractional coordinates of asymmetric unit :

--------------------------------------------------------------------------------
   No.  Atomic       x           y          z         Charge      Occupancy
        Label      (Frac)      (Frac)     (Frac)        (e)         (Frac)  
--------------------------------------------------------------------------------
      1 Al    c    0.000000    0.636420    0.318210     3.00000    1.000000    
      2 Al    c    0.636420 *  0.000000 *  0.318210 *   3.00000    1.000000    
      3 Al    c    0.636420 *  0.000000 *  0.954630 *   3.00000    1.000000    
      4 Al    c    0.000000 *  0.636420 *  0.954630 *   3.00000    1.000000    
      5 Al    c    0.000000 *  0.636420 *  0.000000 *   3.00000    1.000000    
      6 Al    c    0.636420 *  0.000000 *  0.000000 *   3.00000    1.000000    
      7 Al    c    0.636420 *  0.000000 *  0.636420 *   3.00000    1.000000    
      8 Al    c    0.000000 *  0.636420 *  0.636420 *   3.00000    1.000000    
      9 Mg    c    0.000000 *  0.000000 *  0.636420 *   2.00000    1.000000    
     10 Mg    c    0.636420 *  0.636420 *  0.000000 *   2.00000    1.000000    
     11 Mg    c    0.000000 *  0.000000 *  0.000000 *   2.00000    1.000000    
     12 Mg    c    0.636420 *  0.636420 *  0.636420 *   2.00000    1.000000    
     13 O     c    0.308049 *  0.977273 *  0.469310 *  -2.00000    1.000000    
     14 O     c    0.964791 *  0.295566 *  0.469310 *  -2.00000    1.000000    
     15 O     c    0.295566 *  0.308049 *  0.469310 *  -2.00000    1.000000    
     16 O     c    0.977273 *  0.964791 *  0.469310 *  -2.00000    1.000000    
     17 O     c    0.964791 *  0.295566 *  0.803530 *  -2.00000    1.000000    
     18 O     c    0.308049 *  0.977273 *  0.803530 *  -2.00000    1.000000    
     19 O     c    0.977273 *  0.964791 *  0.803530 *  -2.00000    1.000000    
     20 O     c    0.295566 *  0.308049 *  0.803530 *  -2.00000    1.000000    
     21 O     c    0.944468 *  0.340853 *  0.105729 *  -2.00000    1.000000    
     22 O     c    0.328371 *  0.931986 *  0.105729 *  -2.00000    1.000000    
     23 O     c    0.931986 *  0.944468 *  0.105729 *  -2.00000    1.000000    
     24 O     c    0.340853 *  0.328371 *  0.105729 *  -2.00000    1.000000    
     25 O     c    0.328371 *  0.931986 *  0.167110 *  -2.00000    1.000000    
     26 O     c    0.944468 *  0.340853 *  0.167110 *  -2.00000    1.000000    
     27 O     c    0.340853 *  0.328371 *  0.167110 *  -2.00000    1.000000    
     28 O     c    0.931986 *  0.944468 *  0.167110 *  -2.00000    1.000000    
--------------------------------------------------------------------------------



********************************************************************************
*  General input information                                                   *
********************************************************************************

  Species output for all configurations : 

--------------------------------------------------------------------------------
  Species    Type    Atomic    Atomic    Charge       Radii (Angs)     Library
                     Number     Mass       (e)     Cova   Ionic  VDW   Symbol
--------------------------------------------------------------------------------
    Mg       Core       12      24.31   2.000000   1.100  0.000  1.640          
    Al       Core       13      26.98   3.000000   1.350  0.000  2.050          
    O        Core        8      16.00  -2.000000   0.730  0.000  1.360          
--------------------------------------------------------------------------------


  Lattice summation method               =    Ewald          (3-D)
                                         =    Parry          (2-D)
                                         =    Saunders et al (1-D)
  Accuracy factor for lattice sums       =   12.000


  Analytic derivatives to be used

  Time limit = Infinity

  Maximum range for interatomic potentials =    100000.000000 Angstroms

  General interatomic potentials :

--------------------------------------------------------------------------------
Atom  Types   Potential      Parameter       Value         Units   Cutoffs(Ang)
  1     2                                                            Min /  Max 
--------------------------------------------------------------------------------
O    c Mg   c Lennard       Lennard-Jones A  1.5000000    eV*Ang^m  0.000  6.000
                            Lennard-Jones B  0.0000000    eV*Ang^n  
                            Exponent m        12          None
                            Exponent n         6          None
--------------------------------------------------------------------------------
O    c Al   c Lennard       Lennard-Jones A  1.5000000    eV*Ang^m  0.000  6.000
                            Lennard-Jones B  0.0000000    eV*Ang^n  
                            Exponent m        12          None
                            Exponent n         6          None
--------------------------------------------------------------------------------
O    c O    c Lennard       Lennard-Jones A  1.5000000    eV*Ang^m  0.000  6.000
                            Lennard-Jones B  0.0000000    eV*Ang^n  
                            Exponent m        12          None
                            Exponent n         6          None
--------------------------------------------------------------------------------
Mg   c Mg   c Lennard       Lennard-Jones A  1.5000000    eV*Ang^m  0.000  6.000
                            Lennard-Jones B  0.0000000    eV*Ang^n  
                            Exponent m        12          None
                            Exponent n         6          None
--------------------------------------------------------------------------------
Mg   c Al   c Lennard       Lennard-Jones A  1.5000000    eV*Ang^m  0.000  6.000
                            Lennard-Jones B  0.0000000    eV*Ang^n  
                            Exponent m        12          None
                            Exponent n         6          None
--------------------------------------------------------------------------------
Al   c Al   c Lennard       Lennard-Jones A  1.5000000    eV*Ang^m  0.000  6.000
                            Lennard-Jones B  0.0000000    eV*Ang^n  
                            Exponent m        12          None
                            Exponent n         6          None
--------------------------------------------------------------------------------
O    c Mg   c Buckingham    Buckingham A     1428.5000    eV        0.000  7.000
                            Buckingham rho  0.29450000    Ang       
                            Buckingham C     0.0000000    eV*Ang^6  
--------------------------------------------------------------------------------
O    c Al   c Buckingham    Buckingham A     1114.9000    eV        0.000  7.000
                            Buckingham rho  0.31180000    Ang       
                            Buckingham C     0.0000000    eV*Ang^6  
--------------------------------------------------------------------------------
O    c O    c Buckingham    Buckingham A     2023.8000    eV        0.000  7.000
                            Buckingham rho  0.26740000    Ang       
                            Buckingham C     0.0000000    eV*Ang^6  
--------------------------------------------------------------------------------

********************************************************************************
*  Output for configuration   1                                                *
********************************************************************************


  Components of enthalpy : 

--------------------------------------------------------------------------------
  Interatomic potentials     =      670672.28956017 eV    
  Monopole - monopole (real) =         774.15221099 eV    
  Monopole - monopole (recip)=        -388.22807256 eV    
  Monopole - monopole (total)=         385.92413843 eV    
  Pressure*volume            =         125.75581032 eV    
--------------------------------------------------------------------------------
  Total lattice enthalpy     =      671183.96950892 eV    
--------------------------------------------------------------------------------
  Total lattice enthalpy     =        64758993.0710 kJ/(mole unit cells)
--------------------------------------------------------------------------------


  Number of variables =       87

  Maximum number of calculations  =           850
  Maximum Hessian update interval =            10
  Maximum step size               =   1.000000000
  Maximum parameter tolerance     =   0.000010000
  Maximum function  tolerance     =   0.000010000
  Maximum gradient  tolerance     =   0.001000000
  Maximum gradient  component     =   0.010000000

  Cell parameters to be optimised using strains

  Conjugate gradient optimiser to be used

  Lower half triangular hessian to be used

  Minimiser to switch to RFO
  When gradient norm is less than     0.010000

  Start of bulk optimisation :

  Cycle:      0 Energy:    671183.969509  Gnorm:1934525.447284  CPU:    0.036
  Cycle:      1 Energy:      7294.945375  Gnorm:   8496.771017  CPU:    0.116
  Cycle:      2 Energy:       524.004428  Gnorm:    301.979727  CPU:    0.207
  Cycle:      3 Energy:       284.962907  Gnorm:     71.936138  CPU:    0.257
  Cycle:      4 Energy:      -201.154100  Gnorm:     43.359289  CPU:    0.344
  Cycle:      5 Energy:      -374.982492  Gnorm:     25.118484  CPU:    0.394
  Cycle:      6 Energy:      -454.635477  Gnorm:     12.517707  CPU:    0.439
  Cycle:      7 Energy:      -554.824307  Gnorm:      8.582088  CPU:    0.514
  Cycle:      8 Energy:      -581.451664  Gnorm:      3.701335  CPU:    0.554
  Cycle:      9 Energy:      -591.940680  Gnorm:      2.826863  CPU:    0.604
  Cycle:     10 Energy:      -596.201366  Gnorm:      1.924916  CPU:    0.644
  Cycle:     11 Energy:      -603.119558  Gnorm:      2.005653  CPU:    0.695
  Cycle:     12 Energy:      -605.651319  Gnorm:      1.576541  CPU:    0.737
  Cycle:     13 Energy:      -609.132563  Gnorm:      1.605766  CPU:    0.792
  Cycle:     14 Energy:      -611.022878  Gnorm:      1.234559  CPU:    0.833
  Cycle:     15 Energy:      -613.020963  Gnorm:      1.416896  CPU:    0.883
  Cycle:     16 Energy:      -615.073327  Gnorm:      1.126287  CPU:    0.929
  Cycle:     17 Energy:      -617.837970  Gnorm:      1.479216  CPU:    0.980
  Cycle:     18 Energy:      -619.263870  Gnorm:      1.075000  CPU:    1.025
  Cycle:     19 Energy:      -621.676388  Gnorm:      1.004723  CPU:    1.086
  Cycle:     20 Energy:      -622.331240  Gnorm:      0.833140  CPU:    1.156
  Cycle:     21 Energy:      -623.175181  Gnorm:      0.856220  CPU:    1.248
  Cycle:     22 Energy:      -623.889934  Gnorm:      0.975262  CPU:    1.332
  Cycle:     23 Energy:      -624.677533  Gnorm:      0.890282  CPU:    1.418
  Cycle:     24 Energy:      -625.528052  Gnorm:      0.981716  CPU:    1.526
  Cycle:     25 Energy:      -626.423778  Gnorm:      1.044312  CPU:    1.613
  Cycle:     26 Energy:      -627.118736  Gnorm:      0.578939  CPU:    1.700
  Cycle:     27 Energy:      -627.525867  Gnorm:      0.640089  CPU:    1.800
  Cycle:     28 Energy:      -627.747690  Gnorm:      0.513853  CPU:    1.888
  Cycle:     29 Energy:      -628.079882  Gnorm:      0.497192  CPU:    1.994
  Cycle:     30 Energy:      -628.196552  Gnorm:      0.329210  CPU:    2.075
  Cycle:     31 Energy:      -628.295971  Gnorm:      0.342954  CPU:    2.181
  Cycle:     32 Energy:      -628.399709  Gnorm:      0.317569  CPU:    2.284
  Cycle:     33 Energy:      -628.515783  Gnorm:      0.387571  CPU:    2.391
  Cycle:     34 Energy:      -628.663431  Gnorm:      0.319162  CPU:    2.493
  Cycle:     35 Energy:      -628.751022  Gnorm:      0.354182  CPU:    2.576
  Cycle:     36 Energy:      -628.866529  Gnorm:      0.323484  CPU:    2.677
  Cycle:     37 Energy:      -629.065557  Gnorm:      0.298190  CPU:    2.778
  Cycle:     38 Energy:      -629.197123  Gnorm:      0.393978  CPU:    2.878
  Cycle:     39 Energy:      -629.286708  Gnorm:      0.305038  CPU:    2.996
  Cycle:     40 Energy:      -629.355746  Gnorm:      0.297144  CPU:    3.141
  Cycle:     41 Energy:      -629.419368  Gnorm:      0.241933  CPU:    3.286
  Cycle:     42 Energy:      -629.536718  Gnorm:      0.295991  CPU:    3.437
  Cycle:     43 Energy:      -629.645739  Gnorm:      0.292714  CPU:    3.555
  Cycle:     44 Energy:      -629.793790  Gnorm:      0.341046  CPU:    3.701
  Cycle:     45 Energy:      -629.916419  Gnorm:      0.408159  CPU:    3.820
  Cycle:     46 Energy:      -630.031199  Gnorm:      0.300013  CPU:    3.938
  Cycle:     47 Energy:      -630.124626  Gnorm:      0.328466  CPU:    4.085
  Cycle:     48 Energy:      -630.217439  Gnorm:      0.319972  CPU:    4.202
  Cycle:     49 Energy:      -630.367422  Gnorm:      0.454778  CPU:    4.351
  Cycle:     50 Energy:      -630.438991  Gnorm:      0.261732  CPU:    4.505
  Cycle:     51 Energy:      -630.539167  Gnorm:      0.309554  CPU:    4.653
  Cycle:     52 Energy:      -630.628402  Gnorm:      0.329451  CPU:    4.771
  Cycle:     53 Energy:      -630.785517  Gnorm:      0.349020  CPU:    4.915
  Cycle:     54 Energy:      -630.876374  Gnorm:      0.351928  CPU:    5.032
  Cycle:     55 Energy:      -630.998902  Gnorm:      0.292916  CPU:    5.178
  Cycle:     56 Energy:      -631.097674  Gnorm:      0.318969  CPU:    5.324
  Cycle:     57 Energy:      -631.199494  Gnorm:      0.321040  CPU:    5.451
  Cycle:     58 Energy:      -631.264298  Gnorm:      0.246376  CPU:    5.600
  Cycle:     59 Energy:      -631.311991  Gnorm:      0.208259  CPU:    5.868
  Cycle:     60 Energy:      -631.336462  Gnorm:      0.181712  CPU:    6.001
  Cycle:     61 Energy:      -631.374641  Gnorm:      0.209365  CPU:    6.149
  Cycle:     62 Energy:      -631.405002  Gnorm:      0.165793  CPU:    6.277
  Cycle:     63 Energy:      -631.431793  Gnorm:      0.129295  CPU:    6.477
  Cycle:     64 Energy:      -631.445996  Gnorm:      0.142685  CPU:    6.594
  Cycle:     65 Energy:      -631.464386  Gnorm:      0.117276  CPU:    6.801
  Cycle:     66 Energy:      -631.486013  Gnorm:      0.114861  CPU:    7.130
  Cycle:     67 Energy:      -631.506235  Gnorm:      0.150422  CPU:    7.320
  Cycle:     68 Energy:      -631.527859  Gnorm:      0.150712  CPU:    7.485
  Cycle:     69 Energy:      -631.546583  Gnorm:      0.166164  CPU:    7.717
  Cycle:     70 Energy:      -631.557357  Gnorm:      0.106452  CPU:    7.894
  Cycle:     71 Energy:      -631.570157  Gnorm:      0.109435  CPU:    8.045
  Cycle:     72 Energy:      -631.582030  Gnorm:      0.117898  CPU:    8.203
  Cycle:     73 Energy:      -631.597698  Gnorm:      0.137869  CPU:    8.386
  Cycle:     74 Energy:      -631.615979  Gnorm:      0.141848  CPU:    8.547
  Cycle:     75 Energy:      -631.636632  Gnorm:      0.132153  CPU:    8.731
  Cycle:     76 Energy:      -631.662454  Gnorm:      0.151377  CPU:    8.912
  Cycle:     77 Energy:      -631.700529  Gnorm:      0.249776  CPU:    9.110
  Cycle:     78 Energy:      -631.743629  Gnorm:      0.233509  CPU:    9.295
  Cycle:     79 Energy:      -631.811239  Gnorm:      0.307664  CPU:    9.472
  Cycle:     80 Energy:      -631.848047  Gnorm:      0.205272  CPU:    9.593
  Cycle:     81 Energy:      -631.894305  Gnorm:      0.222282  CPU:    9.742
  Cycle:     82 Energy:      -631.965263  Gnorm:      0.195344  CPU:    9.892
  Cycle:     83 Energy:      -632.002607  Gnorm:      0.198037  CPU:   10.012
  Cycle:     84 Energy:      -632.049912  Gnorm:      0.232054  CPU:   10.158
  Cycle:     85 Energy:      -632.098492  Gnorm:      0.238642  CPU:   10.277
  Cycle:     86 Energy:      -632.154878  Gnorm:      0.223496  CPU:   10.423
  Cycle:     87 Energy:      -632.225306  Gnorm:      0.245785  CPU:   10.569
  Cycle:     88 Energy:      -632.367857  Gnorm:      0.355998  CPU:   10.692
  Cycle:     89 Energy:      -632.439275  Gnorm:      0.348169  CPU:   10.797
  Cycle:     90 Energy:      -632.505363  Gnorm:      0.328994  CPU:   10.878
  Cycle:     91 Energy:      -632.604469  Gnorm:      0.226549  CPU:   10.978
  Cycle:     92 Energy:      -632.681816  Gnorm:      0.243535  CPU:   11.078
  Cycle:     93 Energy:      -632.760193  Gnorm:      0.242899  CPU:   11.160
  Cycle:     94 Energy:      -632.809972  Gnorm:      0.237029  CPU:   11.241
  Cycle:     95 Energy:      -632.852782  Gnorm:      0.204928  CPU:   11.322
  Cycle:     96 Energy:      -632.896070  Gnorm:      0.220113  CPU:   11.422
  Cycle:     97 Energy:      -632.952618  Gnorm:      0.227249  CPU:   11.506
  Cycle:     98 Energy:      -632.991489  Gnorm:      0.224094  CPU:   11.590
  Cycle:     99 Energy:      -633.047275  Gnorm:      0.285519  CPU:   11.694
  Cycle:    100 Energy:      -633.097586  Gnorm:      0.207507  CPU:   11.778
  Cycle:    101 Energy:      -633.131466  Gnorm:      0.220061  CPU:   11.882
  Cycle:    102 Energy:      -633.186857  Gnorm:      0.206897  CPU:   11.962
  Cycle:    103 Energy:      -633.229035  Gnorm:      0.216422  CPU:   12.028
  Cycle:    104 Energy:      -633.275213  Gnorm:      0.236885  CPU:   12.096
  Cycle:    105 Energy:      -633.325733  Gnorm:      0.237431  CPU:   12.177
  Cycle:    106 Energy:      -633.405811  Gnorm:      0.249438  CPU:   12.260
  Cycle:    107 Energy:      -633.496991  Gnorm:      0.262795  CPU:   12.331
  Cycle:    108 Energy:      -633.606344  Gnorm:      0.312800  CPU:   12.400
  Cycle:    109 Energy:      -633.675619  Gnorm:      0.359627  CPU:   12.457
  Cycle:    110 Energy:      -633.734839  Gnorm:      0.276102  CPU:   12.515
  Cycle:    111 Energy:      -633.814372  Gnorm:      0.236702  CPU:   12.572
  Cycle:    112 Energy:      -633.899149  Gnorm:      0.233671  CPU:   12.641
  Cycle:    113 Energy:      -633.963609  Gnorm:      0.222276  CPU:   12.697
  Cycle:    114 Energy:      -634.006414  Gnorm:      0.233451  CPU:   12.754
  Cycle:    115 Energy:      -634.061798  Gnorm:      0.224451  CPU:   12.824
  Cycle:    116 Energy:      -634.120372  Gnorm:      0.248049  CPU:   12.893
  Cycle:    117 Energy:      -634.206506  Gnorm:      0.309709  CPU:   12.963
  Cycle:    118 Energy:      -634.283077  Gnorm:      0.343864  CPU:   13.020
  Cycle:    119 Energy:      -634.492584  Gnorm:      0.570459  CPU:   13.091
  Cycle:    120 Energy:      -634.674995  Gnorm:      0.354076  CPU:   13.160
  Cycle:    121 Energy:      -634.774009  Gnorm:      0.383418  CPU:   13.217
  Cycle:    122 Energy:      -634.937363  Gnorm:      0.343487  CPU:   13.287
  Cycle:    123 Energy:      -635.113348  Gnorm:      0.424438  CPU:   13.356
  Cycle:    124 Energy:      -635.294040  Gnorm:      0.455128  CPU:   13.413
  Cycle:    125 Energy:      -635.516019  Gnorm:      0.542499  CPU:   13.483
  Cycle:    126 Energy:      -635.945159  Gnorm:      0.559898  CPU:   13.605
  Cycle:    127 Energy:      -636.410118  Gnorm:      0.493433  CPU:   13.763
  Cycle:    128 Energy:      -636.726257  Gnorm:      0.441912  CPU:   13.931
  Cycle:    129 Energy:      -637.037442  Gnorm:      0.636594  CPU:   14.266
  Cycle:    130 Energy:      -637.188639  Gnorm:      0.345843  CPU:   14.466
  Cycle:    131 Energy:      -637.419746  Gnorm:      0.404150  CPU:   14.615
  Cycle:    132 Energy:      -637.563680  Gnorm:      0.440431  CPU:   14.744
  Cycle:    133 Energy:      -637.750904  Gnorm:      0.355553  CPU:   14.906
  Cycle:    134 Energy:      -637.900766  Gnorm:      0.264056  CPU:   15.068
  Cycle:    135 Energy:      -637.978505  Gnorm:      0.305149  CPU:   15.194
  Cycle:    136 Energy:      -638.071046  Gnorm:      0.319732  CPU:   15.279
  Cycle:    137 Energy:      -638.176209  Gnorm:      0.276306  CPU:   15.387
  Cycle:    138 Energy:      -638.268586  Gnorm:      0.290276  CPU:   15.491
  Cycle:    139 Energy:      -638.345191  Gnorm:      0.280377  CPU:   15.581
  Cycle:    140 Energy:      -638.391098  Gnorm:      0.243559  CPU:   15.670
  Cycle:    141 Energy:      -638.456969  Gnorm:      0.203785  CPU:   15.774
  Cycle:    142 Energy:      -638.516322  Gnorm:      0.271113  CPU:   15.863
  Cycle:    143 Energy:      -638.581663  Gnorm:      0.231981  CPU:   15.967
  Cycle:    144 Energy:      -638.633280  Gnorm:      0.243155  CPU:   16.100
  Cycle:    145 Energy:      -638.723823  Gnorm:      0.265517  CPU:   16.248
  Cycle:    146 Energy:      -638.833176  Gnorm:      0.305662  CPU:   16.470
  Cycle:    147 Energy:      -638.907024  Gnorm:      0.294938  CPU:   16.652
  Cycle:    148 Energy:      -639.015247  Gnorm:      0.329208  CPU:   16.779
  Cycle:    149 Energy:      -639.129183  Gnorm:      0.344926  CPU:   16.869
  Cycle:    150 Energy:      -639.209303  Gnorm:      0.273753  CPU:   16.998
  Cycle:    151 Energy:      -639.281091  Gnorm:      0.258701  CPU:   17.138
  Cycle:    152 Energy:      -639.340817  Gnorm:      0.250332  CPU:   17.255
  Cycle:    153 Energy:      -639.442204  Gnorm:      0.288652  CPU:   17.366
  Cycle:    154 Energy:      -639.533265  Gnorm:      0.301194  CPU:   17.457
  Cycle:    155 Energy:      -639.600444  Gnorm:      0.223523  CPU:   17.553
  Cycle:    156 Energy:      -639.694418  Gnorm:      0.241377  CPU:   17.723
  Cycle:    157 Energy:      -639.788013  Gnorm:      0.261489  CPU:   17.848
  Cycle:    158 Energy:      -639.843295  Gnorm:      0.287286  CPU:   17.949
  Cycle:    159 Energy:      -639.981603  Gnorm:      0.330153  CPU:   18.084
  Cycle:    160 Energy:      -640.069850  Gnorm:      0.282790  CPU:   18.270
  Cycle:    161 Energy:      -640.126305  Gnorm:      0.232905  CPU:   18.456
  Cycle:    162 Energy:      -640.196676  Gnorm:      0.200697  CPU:   18.619
  Cycle:    163 Energy:      -640.249852  Gnorm:      0.212550  CPU:   18.761
  Cycle:    164 Energy:      -640.285620  Gnorm:      0.194645  CPU:   18.853
  Cycle:    165 Energy:      -640.335739  Gnorm:      0.195196  CPU:   18.967
  Cycle:    166 Energy:      -640.379957  Gnorm:      0.155061  CPU:   19.059
  Cycle:    167 Energy:      -640.410028  Gnorm:      0.152554  CPU:   19.172
  Cycle:    168 Energy:      -640.441338  Gnorm:      0.148911  CPU:   19.346
  Cycle:    169 Energy:      -640.461252  Gnorm:      0.177126  CPU:   19.467
  Cycle:    170 Energy:      -640.475905  Gnorm:      0.122351  CPU:   19.579
  Cycle:    171 Energy:      -640.496808  Gnorm:      0.129500  CPU:   19.736
  Cycle:    172 Energy:      -640.515273  Gnorm:      0.125774  CPU:   19.868
  Cycle:    173 Energy:      -640.535275  Gnorm:      0.155000  CPU:   20.008
  Cycle:    174 Energy:      -640.559984  Gnorm:      0.139302  CPU:   20.135
  Cycle:    175 Energy:      -640.581013  Gnorm:      0.122428  CPU:   20.273
  Cycle:    176 Energy:      -640.602725  Gnorm:      0.118418  CPU:   20.403
  Cycle:    177 Energy:      -640.624672  Gnorm:      0.153921  CPU:   20.544
  Cycle:    178 Energy:      -640.644835  Gnorm:      0.138491  CPU:   20.660
  Cycle:    179 Energy:      -640.672169  Gnorm:      0.167508  CPU:   20.806
  Cycle:    180 Energy:      -640.687733  Gnorm:      0.130361  CPU:   20.966
  Cycle:    181 Energy:      -640.704884  Gnorm:      0.117935  CPU:   21.189
  Cycle:    182 Energy:      -640.726237  Gnorm:      0.097904  CPU:   21.384
  Cycle:    183 Energy:      -640.744166  Gnorm:      0.111194  CPU:   21.626
  Cycle:    184 Energy:      -640.763037  Gnorm:      0.135420  CPU:   21.737
  Cycle:    185 Energy:      -640.784586  Gnorm:      0.148398  CPU:   21.864
  Cycle:    186 Energy:      -640.805157  Gnorm:      0.128178  CPU:   22.002
  Cycle:    187 Energy:      -640.827568  Gnorm:      0.149473  CPU:   22.287
  Cycle:    188 Energy:      -640.862312  Gnorm:      0.177458  CPU:   22.569
  Cycle:    189 Energy:      -640.903665  Gnorm:      0.289239  CPU:   22.710
  Cycle:    190 Energy:      -640.939813  Gnorm:      0.174043  CPU:   22.881
  Cycle:    191 Energy:      -640.976551  Gnorm:      0.157985  CPU:   23.055
  Cycle:    192 Energy:      -641.004914  Gnorm:      0.152448  CPU:   23.234
  Cycle:    193 Energy:      -641.036349  Gnorm:      0.171443  CPU:   23.487
  Cycle:    194 Energy:      -641.065318  Gnorm:      0.165974  CPU:   23.641
  Cycle:    195 Energy:      -641.093161  Gnorm:      0.134700  CPU:   23.861
  Cycle:    196 Energy:      -641.124481  Gnorm:      0.141956  CPU:   24.017
  Cycle:    197 Energy:      -641.163912  Gnorm:      0.160752  CPU:   24.185
  Cycle:    198 Energy:      -641.193689  Gnorm:      0.154738  CPU:   24.359
  Cycle:    199 Energy:      -641.225105  Gnorm:      0.258253  CPU:   24.497
  Cycle:    200 Energy:      -641.253611  Gnorm:      0.149653  CPU:   24.611
  Cycle:    201 Energy:      -641.284562  Gnorm:      0.166301  CPU:   24.732
  Cycle:    202 Energy:      -641.326316  Gnorm:      0.159606  CPU:   24.873
  Cycle:    203 Energy:      -641.361063  Gnorm:      0.173793  CPU:   25.022
  Cycle:    204 Energy:      -641.389155  Gnorm:      0.179756  CPU:   25.171
  Cycle:    205 Energy:      -641.431931  Gnorm:      0.175029  CPU:   25.380
  Cycle:    206 Energy:      -641.477914  Gnorm:      0.173987  CPU:   25.525
  Cycle:    207 Energy:      -641.518228  Gnorm:      0.185090  CPU:   25.633
  Cycle:    208 Energy:      -641.557458  Gnorm:      0.175191  CPU:   25.746
  Cycle:    209 Energy:      -641.593560  Gnorm:      0.256252  CPU:   25.888
  Cycle:    210 Energy:      -641.623936  Gnorm:      0.153432  CPU:   25.999
  Cycle:    211 Energy:      -641.655077  Gnorm:      0.174252  CPU:   26.113
  Cycle:    212 Energy:      -641.691959  Gnorm:      0.171410  CPU:   26.261
  Cycle:    213 Energy:      -641.730311  Gnorm:      0.174089  CPU:   26.403
  Cycle:    214 Energy:      -641.756619  Gnorm:      0.167363  CPU:   26.524
  Cycle:    215 Energy:      -641.782232  Gnorm:      0.122333  CPU:   26.666
  Cycle:    216 Energy:      -641.807216  Gnorm:      0.125976  CPU:   26.809
  Cycle:    217 Energy:      -641.834406  Gnorm:      0.138480  CPU:   26.955
  Cycle:    218 Energy:      -641.849402  Gnorm:      0.123402  CPU:   27.077
  Cycle:    219 Energy:      -641.869323  Gnorm:      0.178869  CPU:   27.228
  Cycle:    220 Energy:      -641.885939  Gnorm:      0.110163  CPU:   27.349
  Cycle:    221 Energy:      -641.898782  Gnorm:      0.126325  CPU:   27.472
  Cycle:    222 Energy:      -641.919561  Gnorm:      0.121035  CPU:   27.620
  Cycle:    223 Energy:      -641.940135  Gnorm:      0.111218  CPU:   27.727
  Cycle:    224 Energy:      -641.962684  Gnorm:      0.139655  CPU:   27.870
  Cycle:    225 Energy:      -641.987015  Gnorm:      0.165731  CPU:   27.986
  Cycle:    226 Energy:      -642.014188  Gnorm:      0.172209  CPU:   28.096
  Cycle:    227 Energy:      -642.053476  Gnorm:      0.192877  CPU:   28.242
  Cycle:    228 Energy:      -642.114874  Gnorm:      0.226199  CPU:   28.391
  Cycle:    229 Energy:      -642.236445  Gnorm:      0.551700  CPU:   28.593
  Cycle:    230 Energy:      -642.361296  Gnorm:      0.304243  CPU:   28.774
  Cycle:    231 Energy:      -642.488675  Gnorm:      0.314126  CPU:   28.946
  Cycle:    232 Energy:      -642.630367  Gnorm:      0.364518  CPU:   29.181
  Cycle:    233 Energy:      -642.759011  Gnorm:      0.361993  CPU:   29.308
  Cycle:    234 Energy:      -642.896950  Gnorm:      0.385423  CPU:   29.455
  Cycle:    235 Energy:      -643.080797  Gnorm:      0.373399  CPU:   29.607
  Cycle:    236 Energy:      -643.389112  Gnorm:      0.490532  CPU:   29.752
  Cycle:    237 Energy:      -643.817900  Gnorm:      0.644046  CPU:   29.839
  Cycle:    238 Energy:      -644.002545  Gnorm:      0.483101  CPU:   29.950
  Cycle:    239 Energy:      -644.489903  Gnorm:      0.704499  CPU:   30.045
  Cycle:    240 Energy:      -644.744407  Gnorm:      0.448557  CPU:   30.143
  Cycle:    241 Energy:      -644.954287  Gnorm:      0.492122  CPU:   30.233
  Cycle:    242 Energy:      -645.459703  Gnorm:      0.567846  CPU:   30.327
  Cycle:    243 Energy:      -645.711082  Gnorm:      0.427477  CPU:   30.399
  Cycle:    244 Energy:      -645.849357  Gnorm:      0.304667  CPU:   30.500
  Cycle:    245 Energy:      -645.945427  Gnorm:      0.276518  CPU:   30.588
  Cycle:    246 Energy:      -646.093300  Gnorm:      0.284940  CPU:   30.686
  Cycle:    247 Energy:      -646.165317  Gnorm:      0.255393  CPU:   30.764
  Cycle:    248 Energy:      -646.221988  Gnorm:      0.262850  CPU:   30.865
  Cycle:    249 Energy:      -646.331791  Gnorm:      0.258999  CPU:   31.014
  Cycle:    250 Energy:      -646.380625  Gnorm:      0.205701  CPU:   31.089
  Cycle:    251 Energy:      -646.413277  Gnorm:      0.170649  CPU:   31.181
  Cycle:    252 Energy:      -646.441665  Gnorm:      0.158268  CPU:   31.242
  Cycle:    253 Energy:      -646.486623  Gnorm:      0.183289  CPU:   31.303
  Cycle:    254 Energy:      -646.519179  Gnorm:      0.176566  CPU:   31.373
  Cycle:    255 Energy:      -646.549387  Gnorm:      0.167207  CPU:   31.436
  Cycle:    256 Energy:      -646.595929  Gnorm:      0.189110  CPU:   31.512
  Cycle:    257 Energy:      -646.663649  Gnorm:      0.193313  CPU:   31.586
  Cycle:    258 Energy:      -646.697615  Gnorm:      0.195377  CPU:   31.647
  Cycle:    259 Energy:      -646.729505  Gnorm:      0.190656  CPU:   31.722
  Cycle:    260 Energy:      -646.751716  Gnorm:      0.160479  CPU:   31.784
  Cycle:    261 Energy:      -646.777646  Gnorm:      0.166268  CPU:   31.859
  Cycle:    262 Energy:      -646.815074  Gnorm:      0.134309  CPU:   31.933
  Cycle:    263 Energy:      -646.839616  Gnorm:      0.117502  CPU:   32.009
  Cycle:    264 Energy:      -646.856049  Gnorm:      0.117902  CPU:   32.069
  Cycle:    265 Energy:      -646.871143  Gnorm:      0.126862  CPU:   32.144
  Cycle:    266 Energy:      -646.884822  Gnorm:      0.102147  CPU:   32.205
  Cycle:    267 Energy:      -646.895907  Gnorm:      0.096634  CPU:   32.279
  Cycle:    268 Energy:      -646.906433  Gnorm:      0.110593  CPU:   32.340
  Cycle:    269 Energy:      -646.918406  Gnorm:      0.113106  CPU:   32.401
  Cycle:    270 Energy:      -646.928048  Gnorm:      0.096921  CPU:   32.464
  Cycle:    271 Energy:      -646.935741  Gnorm:      0.080609  CPU:   32.527
  Cycle:    272 Energy:      -646.942704  Gnorm:      0.080480  CPU:   32.591
  Cycle:    273 Energy:      -646.950843  Gnorm:      0.095586  CPU:   32.667
  Cycle:    274 Energy:      -646.959627  Gnorm:      0.085596  CPU:   32.730
  Cycle:    275 Energy:      -646.967029  Gnorm:      0.074992  CPU:   32.790
  Cycle:    276 Energy:      -646.976468  Gnorm:      0.080238  CPU:   32.864
  Cycle:    277 Energy:      -646.987519  Gnorm:      0.081900  CPU:   32.939
  Cycle:    278 Energy:      -646.994497  Gnorm:      0.074280  CPU:   33.000
  Cycle:    279 Energy:      -647.000312  Gnorm:      0.097363  CPU:   33.062
  Cycle:    280 Energy:      -647.005245  Gnorm:      0.067605  CPU:   33.126
  Cycle:    281 Energy:      -647.010385  Gnorm:      0.069244  CPU:   33.190
  Cycle:    282 Energy:      -647.016626  Gnorm:      0.069800  CPU:   33.253
  Cycle:    283 Energy:      -647.020420  Gnorm:      0.064220  CPU:   33.315
  Cycle:    284 Energy:      -647.024615  Gnorm:      0.052670  CPU:   33.399
  Cycle:    285 Energy:      -647.029328  Gnorm:      0.058817  CPU:   33.471
  Cycle:    286 Energy:      -647.033949  Gnorm:      0.051862  CPU:   33.532
  Cycle:    287 Energy:      -647.037402  Gnorm:      0.050973  CPU:   33.617
  Cycle:    288 Energy:      -647.041466  Gnorm:      0.066744  CPU:   33.678
  Cycle:    289 Energy:      -647.045262  Gnorm:      0.079037  CPU:   33.760
  Cycle:    290 Energy:      -647.048694  Gnorm:      0.061936  CPU:   33.842
  Cycle:    291 Energy:      -647.052108  Gnorm:      0.046650  CPU:   33.916
  Cycle:    292 Energy:      -647.054866  Gnorm:      0.045950  CPU:   33.999
  Cycle:    293 Energy:      -647.058419  Gnorm:      0.051946  CPU:   34.066
  Cycle:    294 Energy:      -647.062075  Gnorm:      0.045194  CPU:   34.129
  Cycle:    295 Energy:      -647.064851  Gnorm:      0.053422  CPU:   34.189
  Cycle:    296 Energy:      -647.067569  Gnorm:      0.056576  CPU:   34.252
  Cycle:    297 Energy:      -647.071818  Gnorm:      0.055045  CPU:   34.336
  Cycle:    298 Energy:      -647.074810  Gnorm:      0.054166  CPU:   34.395
  Cycle:    299 Energy:      -647.077612  Gnorm:      0.067103  CPU:   34.454
  Cycle:    300 Energy:      -647.080217  Gnorm:      0.051339  CPU:   34.517
  Cycle:    301 Energy:      -647.082849  Gnorm:      0.051118  CPU:   34.577
  Cycle:    302 Energy:      -647.086304  Gnorm:      0.049622  CPU:   34.640
  Cycle:    303 Energy:      -647.088402  Gnorm:      0.047494  CPU:   34.702
  Cycle:    304 Energy:      -647.090619  Gnorm:      0.039936  CPU:   34.768
  Cycle:    305 Energy:      -647.093466  Gnorm:      0.044247  CPU:   34.842
  Cycle:    306 Energy:      -647.096023  Gnorm:      0.038472  CPU:   34.907
  Cycle:    307 Energy:      -647.097952  Gnorm:      0.037879  CPU:   34.968
  Cycle:    308 Energy:      -647.100606  Gnorm:      0.043576  CPU:   35.034
  Cycle:    309 Energy:      -647.104414  Gnorm:      0.099073  CPU:   35.111
  Cycle:    310 Energy:      -647.107750  Gnorm:      0.041440  CPU:   35.175
  Cycle:    311 Energy:      -647.109983  Gnorm:      0.037018  CPU:   35.236
  Cycle:    312 Energy:      -647.111358  Gnorm:      0.037562  CPU:   35.300
  Cycle:    313 Energy:      -647.112947  Gnorm:      0.041349  CPU:   35.360
  Cycle:    314 Energy:      -647.115187  Gnorm:      0.038210  CPU:   35.420
  Cycle:    315 Energy:      -647.116945  Gnorm:      0.034505  CPU:   35.481
  Cycle:    316 Energy:      -647.119114  Gnorm:      0.038628  CPU:   35.541
  Cycle:    317 Energy:      -647.121726  Gnorm:      0.041668  CPU:   35.604
  Cycle:    318 Energy:      -647.123591  Gnorm:      0.039987  CPU:   35.664
  Cycle:    319 Energy:      -647.125155  Gnorm:      0.051959  CPU:   35.724
  Cycle:    320 Energy:      -647.126575  Gnorm:      0.038682  CPU:   35.785
  Cycle:    321 Energy:      -647.128239  Gnorm:      0.039345  CPU:   35.862
  Cycle:    322 Energy:      -647.130265  Gnorm:      0.040089  CPU:   35.928
  Cycle:    323 Energy:      -647.131682  Gnorm:      0.037004  CPU:   35.988
  Cycle:    324 Energy:      -647.133051  Gnorm:      0.032647  CPU:   36.063
  Cycle:    325 Energy:      -647.134675  Gnorm:      0.036024  CPU:   36.123
  Cycle:    326 Energy:      -647.136472  Gnorm:      0.030121  CPU:   36.198
  Cycle:    327 Energy:      -647.137683  Gnorm:      0.031370  CPU:   36.261
  Cycle:    328 Energy:      -647.138884  Gnorm:      0.040920  CPU:   36.337
  Cycle:    329 Energy:      -647.140494  Gnorm:      0.044572  CPU:   36.400
  Cycle:    330 Energy:      -647.141964  Gnorm:      0.039425  CPU:   36.465
  Cycle:    331 Energy:      -647.143098  Gnorm:      0.030247  CPU:   36.527
  Cycle:    332 Energy:      -647.144136  Gnorm:      0.028645  CPU:   36.588
  Cycle:    333 Energy:      -647.145652  Gnorm:      0.033669  CPU:   36.649
  Cycle:    334 Energy:      -647.147158  Gnorm:      0.029471  CPU:   36.710
  Cycle:    335 Energy:      -647.148270  Gnorm:      0.033877  CPU:   36.771
  Cycle:    336 Energy:      -647.149420  Gnorm:      0.036298  CPU:   36.831
  Cycle:    337 Energy:      -647.151140  Gnorm:      0.035674  CPU:   36.892
  Cycle:    338 Energy:      -647.152415  Gnorm:      0.034590  CPU:   36.954
  Cycle:    339 Energy:      -647.153534  Gnorm:      0.042916  CPU:   37.022
  Cycle:    340 Energy:      -647.154587  Gnorm:      0.033351  CPU:   37.084
  Cycle:    341 Energy:      -647.155767  Gnorm:      0.033782  CPU:   37.146
  Cycle:    342 Energy:      -647.157233  Gnorm:      0.034082  CPU:   37.208
  Cycle:    343 Energy:      -647.158242  Gnorm:      0.031396  CPU:   37.268
  Cycle:    344 Energy:      -647.159203  Gnorm:      0.027936  CPU:   37.329
  Cycle:    345 Energy:      -647.160534  Gnorm:      0.032180  CPU:   37.390
  Cycle:    346 Energy:      -647.161888  Gnorm:      0.026149  CPU:   37.454
  Cycle:    347 Energy:      -647.162830  Gnorm:      0.026580  CPU:   37.515
  Cycle:    348 Energy:      -647.164030  Gnorm:      0.035987  CPU:   37.580
  Cycle:    349 Energy:      -647.165218  Gnorm:      0.046824  CPU:   37.641
  Cycle:    350 Energy:      -647.166336  Gnorm:      0.034980  CPU:   37.705
  Cycle:    351 Energy:      -647.167472  Gnorm:      0.025928  CPU:   37.765
  Cycle:    352 Energy:      -647.168337  Gnorm:      0.025510  CPU:   37.830
  Cycle:    353 Energy:      -647.169507  Gnorm:      0.032519  CPU:   37.891
  Cycle:    354 Energy:      -647.170633  Gnorm:      0.030288  CPU:   37.957
  Cycle:    355 Energy:      -647.171420  Gnorm:      0.027123  CPU:   38.018
  Cycle:    356 Energy:      -647.172468  Gnorm:      0.030790  CPU:   38.082
  Cycle:    357 Energy:      -647.173754  Gnorm:      0.036361  CPU:   38.143
  Cycle:    358 Energy:      -647.174767  Gnorm:      0.031060  CPU:   38.204
  Cycle:    359 Energy:      -647.175867  Gnorm:      0.034000  CPU:   38.264
  Cycle:    360 Energy:      -647.176909  Gnorm:      0.030438  CPU:   38.325
  Cycle:    361 Energy:      -647.177790  Gnorm:      0.033182  CPU:   38.386
  Cycle:    362 Energy:      -647.178944  Gnorm:      0.028245  CPU:   38.446
  Cycle:    363 Energy:      -647.179843  Gnorm:      0.027185  CPU:   38.507
  Cycle:    364 Energy:      -647.180447  Gnorm:      0.027351  CPU:   38.567
  Cycle:    365 Energy:      -647.182097  Gnorm:      0.029626  CPU:   38.628
  Cycle:    366 Energy:      -647.183324  Gnorm:      0.021896  CPU:   38.689
  Cycle:    367 Energy:      -647.184725  Gnorm:      0.026029  CPU:   38.763
  Cycle:    368 Energy:      -647.186624  Gnorm:      0.063199  CPU:   38.824
  Cycle:    369 Energy:      -647.199696  Gnorm:      0.134433  CPU:   38.912
  Cycle:    370 Energy:      -647.207465  Gnorm:      0.062848  CPU:   38.986
  Cycle:    371 Energy:      -647.210592  Gnorm:      0.044778  CPU:   39.047
  Cycle:    372 Energy:      -647.212611  Gnorm:      0.041762  CPU:   39.109
  Cycle:    373 Energy:      -647.214290  Gnorm:      0.042472  CPU:   39.170
  Cycle:    374 Energy:      -647.215618  Gnorm:      0.026887  CPU:   39.230
  Cycle:    375 Energy:      -647.216628  Gnorm:      0.031601  CPU:   39.291
  Cycle:    376 Energy:      -647.218651  Gnorm:      0.032291  CPU:   39.366
  Cycle:    377 Energy:      -647.220315  Gnorm:      0.033676  CPU:   39.428
  Cycle:    378 Energy:      -647.221347  Gnorm:      0.031654  CPU:   39.488
  Cycle:    379 Energy:      -647.222084  Gnorm:      0.024095  CPU:   39.549
  Cycle:    380 Energy:      -647.222527  Gnorm:      0.026500  CPU:   39.610
  Cycle:    381 Energy:      -647.223512  Gnorm:      0.033132  CPU:   39.672
  Cycle:    382 Energy:      -647.224705  Gnorm:      0.031869  CPU:   39.734
  Cycle:    383 Energy:      -647.226601  Gnorm:      0.038269  CPU:   39.795
  Cycle:    384 Energy:      -647.227882  Gnorm:      0.037735  CPU:   39.858
  Cycle:    385 Energy:      -647.229090  Gnorm:      0.031660  CPU:   39.924
  Cycle:    386 Energy:      -647.230995  Gnorm:      0.043543  CPU:   40.029
  Cycle:    387 Energy:      -647.233227  Gnorm:      0.049735  CPU:   40.160
  Cycle:    388 Energy:      -647.235627  Gnorm:      0.052666  CPU:   40.291
  Cycle:    389 Energy:      -647.240128  Gnorm:      0.079882  CPU:   40.419
  Cycle:    390 Energy:      -647.243845  Gnorm:      0.058965  CPU:   40.494
  Cycle:    391 Energy:      -647.246107  Gnorm:      0.038239  CPU:   40.574
  Cycle:    392 Energy:      -647.248286  Gnorm:      0.048616  CPU:   40.647
  Cycle:    393 Energy:      -647.251704  Gnorm:      0.031070  CPU:   40.746
  Cycle:    394 Energy:      -647.253600  Gnorm:      0.047499  CPU:   40.826
  Cycle:    395 Energy:      -647.255315  Gnorm:      0.043556  CPU:   40.903
  Cycle:    396 Energy:      -647.257081  Gnorm:      0.035637  CPU:   40.980
  Cycle:    397 Energy:      -647.258238  Gnorm:      0.033364  CPU:   41.054
  Cycle:    398 Energy:      -647.259623  Gnorm:      0.032721  CPU:   41.128
  Cycle:    399 Energy:      -647.261485  Gnorm:      0.044505  CPU:   41.202
  Cycle:    400 Energy:      -647.262928  Gnorm:      0.030312  CPU:   41.283
  Cycle:    401 Energy:      -647.263733  Gnorm:      0.031064  CPU:   41.351
  Cycle:    402 Energy:      -647.264723  Gnorm:      0.032394  CPU:   41.432
  Cycle:    403 Energy:      -647.266048  Gnorm:      0.032836  CPU:   41.510
  Cycle:    404 Energy:      -647.268291  Gnorm:      0.051276  CPU:   41.591
  Cycle:    405 Energy:      -647.270558  Gnorm:      0.046393  CPU:   41.669
  Cycle:    406 Energy:      -647.274323  Gnorm:      0.062401  CPU:   41.743
  Cycle:    407 Energy:      -647.279251  Gnorm:      0.070676  CPU:   41.817
  Cycle:    408 Energy:      -647.284395  Gnorm:      0.059814  CPU:   41.894
  Cycle:    409 Energy:      -647.287143  Gnorm:      0.058423  CPU:   41.977
  Cycle:    410 Energy:      -647.289159  Gnorm:      0.047111  CPU:   42.049
  Cycle:    411 Energy:      -647.290894  Gnorm:      0.039427  CPU:   42.126
  Cycle:    412 Energy:      -647.294405  Gnorm:      0.039873  CPU:   42.209
  Cycle:    413 Energy:      -647.296203  Gnorm:      0.039201  CPU:   42.292
  Cycle:    414 Energy:      -647.298239  Gnorm:      0.046399  CPU:   42.384
  Cycle:    415 Energy:      -647.300418  Gnorm:      0.050375  CPU:   42.473
  Cycle:    416 Energy:      -647.303201  Gnorm:      0.041852  CPU:   42.578
  Cycle:    417 Energy:      -647.304880  Gnorm:      0.045074  CPU:   42.666
  Cycle:    418 Energy:      -647.306891  Gnorm:      0.039535  CPU:   42.740
  Cycle:    419 Energy:      -647.309394  Gnorm:      0.053764  CPU:   42.836
  Cycle:    420 Energy:      -647.311597  Gnorm:      0.041152  CPU:   42.910
  Cycle:    421 Energy:      -647.313396  Gnorm:      0.045849  CPU:   42.986
  Cycle:    422 Energy:      -647.315205  Gnorm:      0.041379  CPU:   43.064
  Cycle:    423 Energy:      -647.317534  Gnorm:      0.047914  CPU:   43.161
  Cycle:    424 Energy:      -647.320051  Gnorm:      0.046045  CPU:   43.239
  Cycle:    425 Energy:      -647.321888  Gnorm:      0.038804  CPU:   43.318
  Cycle:    426 Energy:      -647.323734  Gnorm:      0.036224  CPU:   43.389
  Cycle:    427 Energy:      -647.326807  Gnorm:      0.041044  CPU:   43.463
  Cycle:    428 Energy:      -647.328234  Gnorm:      0.041627  CPU:   43.537
  Cycle:    429 Energy:      -647.329870  Gnorm:      0.047539  CPU:   43.613
  Cycle:    430 Energy:      -647.331265  Gnorm:      0.040341  CPU:   43.688
  Cycle:    431 Energy:      -647.332778  Gnorm:      0.040537  CPU:   43.767
  Cycle:    432 Energy:      -647.335167  Gnorm:      0.039515  CPU:   43.848
  Cycle:    433 Energy:      -647.336968  Gnorm:      0.033016  CPU:   43.917
  Cycle:    434 Energy:      -647.338656  Gnorm:      0.043088  CPU:   43.991
  Cycle:    435 Energy:      -647.340519  Gnorm:      0.044211  CPU:   44.063
  Cycle:    436 Energy:      -647.342508  Gnorm:      0.038110  CPU:   44.141
  Cycle:    437 Energy:      -647.343958  Gnorm:      0.040492  CPU:   44.237
  Cycle:    438 Energy:      -647.345416  Gnorm:      0.035019  CPU:   44.337
  Cycle:    439 Energy:      -647.347217  Gnorm:      0.044635  CPU:   44.429
  Cycle:    440 Energy:      -647.348504  Gnorm:      0.036157  CPU:   44.503
  Cycle:    441 Energy:      -647.350008  Gnorm:      0.034107  CPU:   44.592
  Cycle:    442 Energy:      -647.351563  Gnorm:      0.035190  CPU:   44.664
  Cycle:    443 Energy:      -647.353071  Gnorm:      0.036054  CPU:   44.734
  Cycle:    444 Energy:      -647.354440  Gnorm:      0.041156  CPU:   44.809
  Cycle:    445 Energy:      -647.355751  Gnorm:      0.031395  CPU:   44.882
  Cycle:    446 Energy:      -647.357329  Gnorm:      0.032303  CPU:   44.971
  Cycle:    447 Energy:      -647.359361  Gnorm:      0.031128  CPU:   45.043
  Cycle:    448 Energy:      -647.360396  Gnorm:      0.029862  CPU:   45.117
  Cycle:    449 Energy:      -647.362187  Gnorm:      0.058847  CPU:   45.211
  Cycle:    450 Energy:      -647.363566  Gnorm:      0.032579  CPU:   45.288
  Cycle:    451 Energy:      -647.364563  Gnorm:      0.026276  CPU:   45.367
  Cycle:    452 Energy:      -647.366032  Gnorm:      0.037370  CPU:   45.438
  Cycle:    453 Energy:      -647.367038  Gnorm:      0.028687  CPU:   45.516
  Cycle:    454 Energy:      -647.368049  Gnorm:      0.027756  CPU:   45.591
  Cycle:    455 Energy:      -647.369027  Gnorm:      0.031053  CPU:   45.668
  Cycle:    456 Energy:      -647.370037  Gnorm:      0.029148  CPU:   45.747
  Cycle:    457 Energy:      -647.370901  Gnorm:      0.032071  CPU:   45.826
  Cycle:    458 Energy:      -647.371807  Gnorm:      0.026702  CPU:   45.902
  Cycle:    459 Energy:      -647.372778  Gnorm:      0.027565  CPU:   45.994
  Cycle:    460 Energy:      -647.373331  Gnorm:      0.025547  CPU:   46.068
  Cycle:    461 Energy:      -647.374094  Gnorm:      0.024603  CPU:   46.135
  Cycle:    462 Energy:      -647.374753  Gnorm:      0.024023  CPU:   46.213
  Cycle:    463 Energy:      -647.375390  Gnorm:      0.030275  CPU:   46.289
  Cycle:    464 Energy:      -647.376337  Gnorm:      0.026141  CPU:   46.361
  Cycle:    465 Energy:      -647.377050  Gnorm:      0.021524  CPU:   46.431
  Cycle:    466 Energy:      -647.378056  Gnorm:      0.028269  CPU:   46.505
  Cycle:    467 Energy:      -647.378882  Gnorm:      0.030562  CPU:   46.579
  Cycle:    468 Energy:      -647.379502  Gnorm:      0.021121  CPU:   46.650
  Cycle:    469 Energy:      -647.380420  Gnorm:      0.036253  CPU:   46.726
  Cycle:    470 Energy:      -647.381097  Gnorm:      0.024925  CPU:   46.818
  Cycle:    471 Energy:      -647.381616  Gnorm:      0.020387  CPU:   46.912
  Cycle:    472 Energy:      -647.382176  Gnorm:      0.025004  CPU:   46.992
  Cycle:    473 Energy:      -647.382900  Gnorm:      0.023630  CPU:   47.076
  Cycle:    474 Energy:      -647.383322  Gnorm:      0.018101  CPU:   47.167
  Cycle:    475 Energy:      -647.383911  Gnorm:      0.021678  CPU:   47.274
  Cycle:    476 Energy:      -647.384498  Gnorm:      0.018524  CPU:   47.357
  Cycle:    477 Energy:      -647.384810  Gnorm:      0.021771  CPU:   47.449
  Cycle:    478 Energy:      -647.385312  Gnorm:      0.016886  CPU:   47.530
  Cycle:    479 Energy:      -647.385663  Gnorm:      0.020408  CPU:   47.619
  Cycle:    480 Energy:      -647.385933  Gnorm:      0.015550  CPU:   47.713
  Cycle:    481 Energy:      -647.386289  Gnorm:      0.020324  CPU:   47.808
  Cycle:    482 Energy:      -647.386628  Gnorm:      0.015770  CPU:   47.900
  Cycle:    483 Energy:      -647.386962  Gnorm:      0.021091  CPU:   47.994
  Cycle:    484 Energy:      -647.387347  Gnorm:      0.017591  CPU:   48.079
  Cycle:    485 Energy:      -647.387667  Gnorm:      0.014644  CPU:   48.162
  Cycle:    486 Energy:      -647.388035  Gnorm:      0.018500  CPU:   48.243
  Cycle:    487 Energy:      -647.388364  Gnorm:      0.019972  CPU:   48.329
  Cycle:    488 Energy:      -647.388745  Gnorm:      0.017272  CPU:   48.410
  Cycle:    489 Energy:      -647.389071  Gnorm:      0.018775  CPU:   48.513
  Cycle:    490 Energy:      -647.389309  Gnorm:      0.016273  CPU:   48.596
  Cycle:    491 Energy:      -647.389512  Gnorm:      0.012765  CPU:   48.677
  Cycle:    492 Energy:      -647.389757  Gnorm:      0.015588  CPU:   48.758
  Cycle:    493 Energy:      -647.390025  Gnorm:      0.013096  CPU:   48.839
  Cycle:    494 Energy:      -647.390178  Gnorm:      0.013680  CPU:   48.921
  Cycle:    495 Energy:      -647.390533  Gnorm:      0.015212  CPU:   49.006
  Cycle:    496 Energy:      -647.390845  Gnorm:      0.013695  CPU:   49.090
  Cycle:    497 Energy:      -647.391163  Gnorm:      0.017899  CPU:   49.199
  Cycle:    498 Energy:      -647.391346  Gnorm:      0.012565  CPU:   49.278
  Cycle:    499 Energy:      -647.391676  Gnorm:      0.019081  CPU:   49.362
  Cycle:    500 Energy:      -647.391872  Gnorm:      0.012776  CPU:   49.446
  Cycle:    501 Energy:      -647.392009  Gnorm:      0.012695  CPU:   49.532
  Cycle:    502 Energy:      -647.392222  Gnorm:      0.012113  CPU:   49.609
  Cycle:    503 Energy:      -647.392436  Gnorm:      0.012568  CPU:   49.693
  Cycle:    504 Energy:      -647.392655  Gnorm:      0.011437  CPU:   49.773
  Cycle:    505 Energy:      -647.392790  Gnorm:      0.011044  CPU:   49.850
  Cycle:    506 Energy:      -647.392893  Gnorm:      0.009685  CPU:   49.934
  ** Hessian has required structure
  Cycle:    507 Energy:      -647.395985  Gnorm:      0.003516  CPU:   50.234
  ** Hessian has required structure
  Cycle:    508 Energy:      -647.396559  Gnorm:      0.001747  CPU:   50.334
  ** Hessian has required structure
  Cycle:    509 Energy:      -647.396590  Gnorm:      0.000342  CPU:   50.451
  ** Hessian has required structure


  **** Optimisation achieved ****


  Final enthalpy =    -647.39659059 eV      
  Final Gnorm    =       0.00002219

  Components of enthalpy : 

--------------------------------------------------------------------------------
  Interatomic potentials     =         228.68307596 eV    
  Monopole - monopole (real) =        -520.12729150 eV    
  Monopole - monopole (recip)=        -486.57420652 eV    
  Monopole - monopole (total)=       -1006.70149802 eV    
  Pressure*volume            =         130.62183147 eV    
--------------------------------------------------------------------------------
  Total lattice enthalpy     =        -647.39659059 eV    
--------------------------------------------------------------------------------
  Total lattice enthalpy     =          -62463.8746 kJ/(mole unit cells)
--------------------------------------------------------------------------------

  Final fractional coordinates of atoms :

--------------------------------------------------------------------------------
   No.  Atomic        x           y          z          Radius
        Label       (Frac)      (Frac)     (Frac)       (Angs) 
--------------------------------------------------------------------------------
     1  Al    c     0.000000    0.636420    0.318210    0.000000
     2  Al    c     0.496609    0.114940    0.316525    0.000000
     3  Al    c     0.480539    0.135831    0.822986    0.000000
     4  Al    c     0.982461    0.618139    0.822715    0.000000
     5  Al    c     0.281234    0.641527    0.985142    0.000000
     6  Al    c     0.106794    0.137877    0.163883    0.000000
     7  Al    c     0.735576    0.155583    0.500875    0.000000
     8  Al    c     0.248165    0.599850    0.497156    0.000000
     9  Mg    c     0.089684    0.114443    0.673968    0.000000
    10  Mg    c     0.610540    0.621788    0.163694    0.000000
    11  Mg    c     0.789431    0.122773    0.983070    0.000000
    12  Mg    c     0.594608    0.639781    0.674072    0.000000
    13  O     c     0.287242    0.805802    0.364351    0.000000
    14  O     c     0.886543    0.480591    0.495890    0.000000
    15  O     c     0.381010    0.269539    0.494140    0.000000
    16  O     c     0.751663    0.002329    0.632313    0.000000
    17  O     c     0.767955    0.401406    0.773210    0.000000
    18  O     c     0.243477    0.749664    0.633432    0.000000
    19  O     c     0.670566    0.860493    0.877124    0.000000
    20  O     c     0.283247    0.341903    0.760595    0.000000
    21  O     c     0.920800    0.493950    0.993395    0.000000
    22  O     c     0.204256    0.870400    0.868508    0.000000
    23  O     c     0.790851    0.994809    0.144803    0.000000
    24  O     c     0.366631    0.289707    0.005824    0.000000
    25  O     c     0.257037    0.783915    0.136729    0.000000
    26  O     c     0.787312    0.415543    0.268557    0.000000
    27  O     c     0.270752    0.308328    0.261663    0.000000
    28  O     c     0.782356    0.936068    0.370932    0.000000
--------------------------------------------------------------------------------

  Final Cartesian lattice vectors (Angstroms) :

        4.563124   -0.006367    1.353385
       -0.006944    4.696393   -0.005138
        2.120583   -0.006940   10.394657


  Final cell parameters and derivatives :

--------------------------------------------------------------------------------
       a            4.759600 Angstrom     dE/de1(xx)    -0.000133 eV/strain
       b            4.696401 Angstrom     dE/de2(yy)     0.000033 eV/strain
       c           10.608761 Angstrom     dE/de3(zz)    -0.000039 eV/strain
       alpha       90.115838 Degrees      dE/de4(yz)     0.000218 eV/strain
       beta        61.949544 Degrees      dE/de5(xz)     0.000432 eV/strain
       gamma       90.175692 Degrees      dE/de6(xy)     0.000824 eV/strain
--------------------------------------------------------------------------------

  Primitive cell volume =           209.280862 Angs**3

  Density of cell =      4.515437 g/cm**3

  Non-primitive cell volume =           209.280862 Angs**3


  Final internal derivatives :

--------------------------------------------------------------------------------
   No.  Atomic          a             b             c           Radius
        Label          (eV)          (eV)          (eV)        (eV/Angs)
--------------------------------------------------------------------------------
      1 Al    c       0.000000      0.000000      0.000000      0.000000
      2 Al    c       0.000140      0.000068     -0.000028      0.000000
      3 Al    c       0.000133     -0.000043     -0.000101      0.000000
      4 Al    c      -0.000079     -0.000053     -0.000269      0.000000
      5 Al    c       0.000422      0.000242     -0.000801      0.000000
      6 Al    c      -0.000030     -0.000032      0.000167      0.000000
      7 Al    c       0.000130     -0.000123      0.000017      0.000000
      8 Al    c       0.000225     -0.000024      0.000242      0.000000
      9 Mg    c       0.000013     -0.000031     -0.000152      0.000000
     10 Mg    c       0.000094      0.000153      0.000169      0.000000
     11 Mg    c      -0.000026     -0.000005     -0.000363      0.000000
     12 Mg    c       0.000172     -0.000041      0.000164      0.000000
     13 O     c       0.000208      0.000019      0.000220      0.000000
     14 O     c       0.000018     -0.000065      0.000281      0.000000
     15 O     c       0.000058      0.000011      0.000111      0.000000
     16 O     c      -0.000205      0.000168     -0.000113      0.000000
     17 O     c      -0.000054     -0.000107     -0.000075      0.000000
     18 O     c      -0.000133     -0.000069     -0.000498      0.000000
     19 O     c      -0.000403     -0.000314      0.000202      0.000000
     20 O     c      -0.000164      0.000026      0.000003      0.000000
     21 O     c       0.000055      0.000022     -0.000179      0.000000
     22 O     c      -0.000050      0.000094      0.000140      0.000000
     23 O     c      -0.000002      0.000082      0.000420      0.000000
     24 O     c       0.000121      0.000043     -0.000146      0.000000
     25 O     c       0.000050     -0.000003      0.000144      0.000000
     26 O     c       0.000089     -0.000190      0.000017      0.000000
     27 O     c       0.000081     -0.000166      0.000022      0.000000
     28 O     c       0.000073      0.000166      0.000124      0.000000
--------------------------------------------------------------------------------
  Maximum abs         0.000422      0.000314      0.000801      0.000000
--------------------------------------------------------------------------------


  Time to end of optimisation =      50.5552 seconds


  Peak dynamic memory used =       2.03 MB 


  Timing analysis for GULP :

--------------------------------------------------------------------------------
  Task / Subroutine                                          Time (Seconds)
--------------------------------------------------------------------------------
  Calculation of reciprocal space energy and derivatives          1.7284
  Calculation of real space energy and derivatives               48.5238
  Calculation and manipulation of Hessian matrix                  0.0958
  Global summation overhead                                       0.0065
--------------------------------------------------------------------------------
  Total CPU time                                                 50.5552
--------------------------------------------------------------------------------


  Job Finished at 16:46.19 11th June       2024                               

