********************************************************************************
*                       GENERAL UTILITY LATTICE PROGRAM                        *
*                                 Julian Gale                                  *
*                       Curtin Institute for Computation                       *
*                    School of Molecular and Life Sciences                     *
*                    Curtin University, Western Australia                      *
********************************************************************************
* Version = 6.0.0 * Last modified =  12th July 2021                            *
********************************************************************************
*  optimise     - perform optimisation run                                     *
*  conp         - constant pressure calculation                                *
*  nosymmetry   - turn off symmetry after initial structure generation         *
*  conjugate    - use conjugate gradients minimiser                            *
********************************************************************************

  Job Started  at 16:49.24 11th June       2024                               

  Number of CPUs =     1


  Total number of configurations input =      1

********************************************************************************
*  Input for Configuration =   1                                               *
********************************************************************************

  Formula = Al8Mg4O16                                                   

  Number of irreducible atoms/shells =      28


  Total number atoms/shells =      28

  Dimensionality = 3               :  Bulk   



  Cartesian lattice vectors (Angstroms) :

        4.474507   -2.583358    0.000000
        0.000000    5.166715    0.000000
        0.000000    0.000000    8.715296

  Cell parameters (Angstroms/Degrees):

  a =       5.1667    alpha =  90.0000
  b =       5.1667    beta  =  90.0000
  c =       8.7153    gamma = 120.0000

  Initial cell volume =         201.484576 Angs**3

  Temperature of configuration =   0.00     K 

  Pressure of configuration =       100.000 GPa 

  Fractional coordinates of asymmetric unit :

--------------------------------------------------------------------------------
   No.  Atomic       x           y          z         Charge      Occupancy
        Label      (Frac)      (Frac)     (Frac)        (e)         (Frac)  
--------------------------------------------------------------------------------
      1 Al    c    0.193958    0.152685    0.264326     3.00000    1.000000    
      2 Al    c    0.193958 *  0.041274 *  0.264326 *   3.00000    1.000000    
      3 Al    c    0.958726 *  0.152685 *  0.264326 *   3.00000    1.000000    
      4 Al    c    0.152685 *  0.193958 *  0.082318 *   3.00000    1.000000    
      5 Al    c    0.041274 *  0.193958 *  0.082318 *   3.00000    1.000000    
      6 Al    c    0.152685 *  0.958726 *  0.082318 *   3.00000    1.000000    
      7 Al    c    0.000000 *  0.000000 *  0.503302 *   3.00000    1.000000    
      8 Al    c    0.000000 *  0.000000 *  0.843341 *   3.00000    1.000000    
      9 Mg    c    0.673322 *  0.000000 *  0.346643 *   2.00000    1.000000    
     10 Mg    c    0.000000 *  0.673322 *  0.346643 *   2.00000    1.000000    
     11 Mg    c    0.673322 *  0.673322 *  0.346643 *   2.00000    1.000000    
     12 Mg    c    0.000000 *  0.000000 *  0.000000 *   2.00000    1.000000    
     13 O     c    0.211797 *  0.346643 *  0.673322 *  -2.00000    1.000000    
     14 O     c    0.000000 *  0.211797 *  0.673322 *  -2.00000    1.000000    
     15 O     c    0.134846 *  0.134846 *  0.673322 *  -2.00000    1.000000    
     16 O     c    0.134846 *  0.346643 *  0.673322 *  -2.00000    1.000000    
     17 O     c    0.000000 *  0.134846 *  0.673322 *  -2.00000    1.000000    
     18 O     c    0.211797 *  0.211797 *  0.673322 *  -2.00000    1.000000    
     19 O     c    0.000000 *  0.000000 *  0.673322 *  -2.00000    1.000000    
     20 O     c    0.952551 *  0.000000 *  0.000000 *  -2.00000    1.000000    
     21 O     c    0.000000 *  0.952551 *  0.346643 *  -2.00000    1.000000    
     22 O     c    0.394092 *  0.394092 *  0.000000 *  -2.00000    1.000000    
     23 O     c    0.394092 *  0.000000 *  0.000000 *  -2.00000    1.000000    
     24 O     c    0.000000 *  0.394092 *  0.000000 *  -2.00000    1.000000    
     25 O     c    0.952551 *  0.952551 *  0.000000 *  -2.00000    1.000000    
     26 O     c    0.673322 *  0.000000 *  0.673322 *  -2.00000    1.000000    
     27 O     c    0.000000 *  0.673322 *  0.673322 *  -2.00000    1.000000    
     28 O     c    0.673322 *  0.673322 *  0.673322 *  -2.00000    1.000000    
--------------------------------------------------------------------------------



********************************************************************************
*  General input information                                                   *
********************************************************************************

  Species output for all configurations : 

--------------------------------------------------------------------------------
  Species    Type    Atomic    Atomic    Charge       Radii (Angs)     Library
                     Number     Mass       (e)     Cova   Ionic  VDW   Symbol
--------------------------------------------------------------------------------
    Mg       Core       12      24.31   2.000000   1.100  0.000  1.640          
    Al       Core       13      26.98   3.000000   1.350  0.000  2.050          
    O        Core        8      16.00  -2.000000   0.730  0.000  1.360          
--------------------------------------------------------------------------------


  Lattice summation method               =    Ewald          (3-D)
                                         =    Parry          (2-D)
                                         =    Saunders et al (1-D)
  Accuracy factor for lattice sums       =   12.000


  Analytic derivatives to be used

  Time limit = Infinity

  Maximum range for interatomic potentials =    100000.000000 Angstroms

  General interatomic potentials :

--------------------------------------------------------------------------------
Atom  Types   Potential      Parameter       Value         Units   Cutoffs(Ang)
  1     2                                                            Min /  Max 
--------------------------------------------------------------------------------
O    c Mg   c Lennard       Lennard-Jones A  1.5000000    eV*Ang^m  0.000  6.000
                            Lennard-Jones B  0.0000000    eV*Ang^n  
                            Exponent m        12          None
                            Exponent n         6          None
--------------------------------------------------------------------------------
O    c Al   c Lennard       Lennard-Jones A  1.5000000    eV*Ang^m  0.000  6.000
                            Lennard-Jones B  0.0000000    eV*Ang^n  
                            Exponent m        12          None
                            Exponent n         6          None
--------------------------------------------------------------------------------
O    c O    c Lennard       Lennard-Jones A  1.5000000    eV*Ang^m  0.000  6.000
                            Lennard-Jones B  0.0000000    eV*Ang^n  
                            Exponent m        12          None
                            Exponent n         6          None
--------------------------------------------------------------------------------
Mg   c Mg   c Lennard       Lennard-Jones A  1.5000000    eV*Ang^m  0.000  6.000
                            Lennard-Jones B  0.0000000    eV*Ang^n  
                            Exponent m        12          None
                            Exponent n         6          None
--------------------------------------------------------------------------------
Mg   c Al   c Lennard       Lennard-Jones A  1.5000000    eV*Ang^m  0.000  6.000
                            Lennard-Jones B  0.0000000    eV*Ang^n  
                            Exponent m        12          None
                            Exponent n         6          None
--------------------------------------------------------------------------------
Al   c Al   c Lennard       Lennard-Jones A  1.5000000    eV*Ang^m  0.000  6.000
                            Lennard-Jones B  0.0000000    eV*Ang^n  
                            Exponent m        12          None
                            Exponent n         6          None
--------------------------------------------------------------------------------
O    c Mg   c Buckingham    Buckingham A     1428.5000    eV        0.000  7.000
                            Buckingham rho  0.29450000    Ang       
                            Buckingham C     0.0000000    eV*Ang^6  
--------------------------------------------------------------------------------
O    c Al   c Buckingham    Buckingham A     1114.9000    eV        0.000  7.000
                            Buckingham rho  0.31180000    Ang       
                            Buckingham C     0.0000000    eV*Ang^6  
--------------------------------------------------------------------------------
O    c O    c Buckingham    Buckingham A     2023.8000    eV        0.000  7.000
                            Buckingham rho  0.26740000    Ang       
                            Buckingham C     0.0000000    eV*Ang^6  
--------------------------------------------------------------------------------

********************************************************************************
*  Output for configuration   1                                                *
********************************************************************************


  Components of enthalpy : 

--------------------------------------------------------------------------------
  Interatomic potentials     =    95776870.35439995 eV    
  Monopole - monopole (real) =        1242.58851533 eV    
  Monopole - monopole (recip)=         321.86673468 eV    
  Monopole - monopole (total)=        1564.45525001 eV    
  Pressure*volume            =         125.75581033 eV    
--------------------------------------------------------------------------------
  Total lattice enthalpy     =    95778560.56546028 eV    
--------------------------------------------------------------------------------
  Total lattice enthalpy     =      9241166985.1787 kJ/(mole unit cells)
--------------------------------------------------------------------------------


  Number of variables =       87

  Maximum number of calculations  =           850
  Maximum Hessian update interval =            10
  Maximum step size               =   1.000000000
  Maximum parameter tolerance     =   0.000010000
  Maximum function  tolerance     =   0.000010000
  Maximum gradient  tolerance     =   0.001000000
  Maximum gradient  component     =   0.010000000

  Cell parameters to be optimised using strains

  Conjugate gradient optimiser to be used

  Lower half triangular hessian to be used

  Minimiser to switch to RFO
  When gradient norm is less than     0.010000

  Start of bulk optimisation :

  Cycle:      0 Energy:  95778560.565460  Gnorm:**************  CPU:    0.048
  Cycle:      1 Energy:    229710.668300  Gnorm: 318397.467558  CPU:    0.172
  Cycle:      2 Energy:     14746.113492  Gnorm:   6651.833033  CPU:    0.302
  Cycle:      3 Energy:      7026.687985  Gnorm:   2207.262438  CPU:    0.400
  Cycle:      4 Energy:      5217.710633  Gnorm:   1142.622348  CPU:    0.498
  Cycle:      5 Energy:      3535.442787  Gnorm:    539.557153  CPU:    0.615
  Cycle:      6 Energy:      2554.709892  Gnorm:    251.654167  CPU:    0.734
  Cycle:      7 Energy:      1582.441774  Gnorm:    128.053086  CPU:    0.837
  Cycle:      8 Energy:       716.302095  Gnorm:     61.471612  CPU:    0.934
  Cycle:      9 Energy:       265.382505  Gnorm:     42.794669  CPU:    1.027
  Cycle:     10 Energy:        75.528133  Gnorm:     31.557865  CPU:    1.118
  Cycle:     11 Energy:      -159.122291  Gnorm:     23.853736  CPU:    1.210
  Cycle:     12 Energy:      -327.268974  Gnorm:     17.124702  CPU:    1.299
  Cycle:     13 Energy:      -401.533210  Gnorm:     10.473070  CPU:    1.380
  Cycle:     14 Energy:      -458.582855  Gnorm:      9.108767  CPU:    1.456
  Cycle:     15 Energy:      -515.030569  Gnorm:      5.249539  CPU:    1.555
  Cycle:     16 Energy:      -552.242120  Gnorm:      4.268571  CPU:    1.632
  Cycle:     17 Energy:      -568.953906  Gnorm:      2.560432  CPU:    1.699
  Cycle:     18 Energy:      -580.490771  Gnorm:      2.392197  CPU:    1.777
  Cycle:     19 Energy:      -589.269818  Gnorm:      2.114746  CPU:    1.841
  Cycle:     20 Energy:      -594.164965  Gnorm:      1.583326  CPU:    1.909
  Cycle:     21 Energy:      -598.473438  Gnorm:      1.457092  CPU:    1.975
  Cycle:     22 Energy:      -602.385942  Gnorm:      1.687181  CPU:    2.063
  Cycle:     23 Energy:      -605.410859  Gnorm:      1.198061  CPU:    2.141
  Cycle:     24 Energy:      -608.123984  Gnorm:      1.336381  CPU:    2.236
  Cycle:     25 Energy:      -610.329270  Gnorm:      1.064305  CPU:    2.314
  Cycle:     26 Energy:      -612.561424  Gnorm:      1.120795  CPU:    2.410
  Cycle:     27 Energy:      -615.479312  Gnorm:      1.171735  CPU:    2.507
  Cycle:     28 Energy:      -618.070595  Gnorm:      1.156260  CPU:    2.586
  Cycle:     29 Energy:      -620.366698  Gnorm:      1.346443  CPU:    2.683
  Cycle:     30 Energy:      -622.104418  Gnorm:      0.981648  CPU:    2.760
  Cycle:     31 Energy:      -624.059298  Gnorm:      0.820467  CPU:    2.857
  Cycle:     32 Energy:      -625.213477  Gnorm:      0.842597  CPU:    2.937
  Cycle:     33 Energy:      -626.281639  Gnorm:      0.830940  CPU:    3.017
  Cycle:     34 Energy:      -627.492773  Gnorm:      0.757614  CPU:    3.116
  Cycle:     35 Energy:      -628.639478  Gnorm:      0.796143  CPU:    3.214
  Cycle:     36 Energy:      -630.225047  Gnorm:      0.837358  CPU:    3.313
  Cycle:     37 Energy:      -631.210177  Gnorm:      0.843653  CPU:    3.396
  Cycle:     38 Energy:      -632.081499  Gnorm:      0.683834  CPU:    3.477
  Cycle:     39 Energy:      -633.159088  Gnorm:      0.657551  CPU:    3.583
  Cycle:     40 Energy:      -633.539252  Gnorm:      0.492079  CPU:    3.666
  Cycle:     41 Energy:      -633.864931  Gnorm:      0.397859  CPU:    3.769
  Cycle:     42 Energy:      -634.176596  Gnorm:      0.369470  CPU:    3.872
  Cycle:     43 Energy:      -634.391331  Gnorm:      0.304595  CPU:    3.957
  Cycle:     44 Energy:      -634.641739  Gnorm:      0.388427  CPU:    4.061
  Cycle:     45 Energy:      -634.836358  Gnorm:      0.356144  CPU:    4.147
  Cycle:     46 Energy:      -635.119928  Gnorm:      0.397115  CPU:    4.250
  Cycle:     47 Energy:      -635.379853  Gnorm:      0.475992  CPU:    4.333
  Cycle:     48 Energy:      -635.707348  Gnorm:      0.428802  CPU:    4.421
  Cycle:     49 Energy:      -636.098696  Gnorm:      0.570996  CPU:    4.524
  Cycle:     50 Energy:      -636.383650  Gnorm:      0.441289  CPU:    4.607
  Cycle:     51 Energy:      -636.710204  Gnorm:      0.421087  CPU:    4.709
  Cycle:     52 Energy:      -637.021540  Gnorm:      0.449394  CPU:    4.818
  Cycle:     53 Energy:      -637.273161  Gnorm:      0.412854  CPU:    4.904
  Cycle:     54 Energy:      -637.607724  Gnorm:      0.396090  CPU:    5.008
  Cycle:     55 Energy:      -637.962026  Gnorm:      0.404805  CPU:    5.109
  Cycle:     56 Energy:      -638.334317  Gnorm:      0.510846  CPU:    5.214
  Cycle:     57 Energy:      -638.664309  Gnorm:      0.511538  CPU:    5.298
  Cycle:     58 Energy:      -639.020074  Gnorm:      0.392055  CPU:    5.406
  Cycle:     59 Energy:      -639.291154  Gnorm:      0.402237  CPU:    5.523
  Cycle:     60 Energy:      -639.408006  Gnorm:      0.297870  CPU:    5.608
  Cycle:     61 Energy:      -639.563841  Gnorm:      0.268614  CPU:    5.711
  Cycle:     62 Energy:      -639.682688  Gnorm:      0.250893  CPU:    5.815
  Cycle:     63 Energy:      -639.768431  Gnorm:      0.255172  CPU:    5.899
  Cycle:     64 Energy:      -639.865626  Gnorm:      0.241952  CPU:    6.002
  Cycle:     65 Energy:      -639.974750  Gnorm:      0.239740  CPU:    6.105
  Cycle:     66 Energy:      -640.120350  Gnorm:      0.253172  CPU:    6.209
  Cycle:     67 Energy:      -640.285066  Gnorm:      0.372629  CPU:    6.318
  Cycle:     68 Energy:      -640.474748  Gnorm:      0.377560  CPU:    6.403
  Cycle:     69 Energy:      -640.727035  Gnorm:      0.402786  CPU:    6.487
  Cycle:     70 Energy:      -640.826363  Gnorm:      0.237450  CPU:    6.571
  Cycle:     71 Energy:      -640.939989  Gnorm:      0.283837  CPU:    6.678
  Cycle:     72 Energy:      -641.076776  Gnorm:      0.226420  CPU:    6.785
  Cycle:     73 Energy:      -641.166305  Gnorm:      0.260518  CPU:    6.870
  Cycle:     74 Energy:      -641.251725  Gnorm:      0.230815  CPU:    6.955
  Cycle:     75 Energy:      -641.338995  Gnorm:      0.211826  CPU:    7.057
  Cycle:     76 Energy:      -641.432932  Gnorm:      0.214746  CPU:    7.161
  Cycle:     77 Energy:      -641.523543  Gnorm:      0.232124  CPU:    7.264
  Cycle:     78 Energy:      -641.585855  Gnorm:      0.239225  CPU:    7.362
  Cycle:     79 Energy:      -641.713709  Gnorm:      0.294280  CPU:    7.473
  Cycle:     80 Energy:      -641.794247  Gnorm:      0.191510  CPU:    7.556
  Cycle:     81 Energy:      -641.843368  Gnorm:      0.209951  CPU:    7.664
  Cycle:     82 Energy:      -641.907833  Gnorm:      0.199530  CPU:    7.772
  Cycle:     83 Energy:      -641.996335  Gnorm:      0.196555  CPU:    7.887
  Cycle:     84 Energy:      -642.061500  Gnorm:      0.167611  CPU:    7.973
  Cycle:     85 Energy:      -642.127629  Gnorm:      0.190522  CPU:    8.081
  Cycle:     86 Energy:      -642.186750  Gnorm:      0.201518  CPU:    8.166
  Cycle:     87 Energy:      -642.252343  Gnorm:      0.261671  CPU:    8.278
  Cycle:     88 Energy:      -642.354849  Gnorm:      0.191407  CPU:    8.385
  Cycle:     89 Energy:      -642.442463  Gnorm:      0.213712  CPU:    8.496
  Cycle:     90 Energy:      -642.480905  Gnorm:      0.158471  CPU:    8.585
  Cycle:     91 Energy:      -642.516840  Gnorm:      0.160557  CPU:    8.669
  Cycle:     92 Energy:      -642.572565  Gnorm:      0.159303  CPU:    8.772
  Cycle:     93 Energy:      -642.606221  Gnorm:      0.137653  CPU:    8.855
  Cycle:     94 Energy:      -642.632278  Gnorm:      0.149955  CPU:    8.957
  Cycle:     95 Energy:      -642.662313  Gnorm:      0.122938  CPU:    9.063
  Cycle:     96 Energy:      -642.691836  Gnorm:      0.114361  CPU:    9.165
  Cycle:     97 Energy:      -642.721315  Gnorm:      0.123958  CPU:    9.271
  Cycle:     98 Energy:      -642.750633  Gnorm:      0.137484  CPU:    9.355
  Cycle:     99 Energy:      -642.787024  Gnorm:      0.176675  CPU:    9.462
  Cycle:    100 Energy:      -642.807777  Gnorm:      0.116316  CPU:    9.550
  Cycle:    101 Energy:      -642.834150  Gnorm:      0.108511  CPU:    9.655
  Cycle:    102 Energy:      -642.853870  Gnorm:      0.116691  CPU:    9.742
  Cycle:    103 Energy:      -642.874096  Gnorm:      0.131345  CPU:    9.827
  Cycle:    104 Energy:      -642.899732  Gnorm:      0.126934  CPU:    9.934
  Cycle:    105 Energy:      -642.925637  Gnorm:      0.113005  CPU:   10.019
  Cycle:    106 Energy:      -642.961744  Gnorm:      0.138738  CPU:   10.123
  Cycle:    107 Energy:      -643.007401  Gnorm:      0.175559  CPU:   10.208
  Cycle:    108 Energy:      -643.052719  Gnorm:      0.189324  CPU:   10.297
  Cycle:    109 Energy:      -643.094671  Gnorm:      0.183092  CPU:   10.383
  Cycle:    110 Energy:      -643.123474  Gnorm:      0.151145  CPU:   10.471
  Cycle:    111 Energy:      -643.156890  Gnorm:      0.152888  CPU:   10.577
  Cycle:    112 Energy:      -643.192944  Gnorm:      0.133591  CPU:   10.685
  Cycle:    113 Energy:      -643.226737  Gnorm:      0.112126  CPU:   10.790
  Cycle:    114 Energy:      -643.251305  Gnorm:      0.113774  CPU:   10.899
  Cycle:    115 Energy:      -643.272171  Gnorm:      0.116344  CPU:   10.987
  Cycle:    116 Energy:      -643.291251  Gnorm:      0.114302  CPU:   11.074
  Cycle:    117 Energy:      -643.309873  Gnorm:      0.101321  CPU:   11.178
  Cycle:    118 Energy:      -643.331928  Gnorm:      0.114980  CPU:   11.282
  Cycle:    119 Energy:      -643.350771  Gnorm:      0.144837  CPU:   11.367
  Cycle:    120 Energy:      -643.364256  Gnorm:      0.095351  CPU:   11.453
  Cycle:    121 Energy:      -643.380638  Gnorm:      0.090753  CPU:   11.538
  Cycle:    122 Energy:      -643.395356  Gnorm:      0.098321  CPU:   11.623
  Cycle:    123 Energy:      -643.410185  Gnorm:      0.107050  CPU:   11.708
  Cycle:    124 Energy:      -643.429779  Gnorm:      0.104025  CPU:   11.816
  Cycle:    125 Energy:      -643.447332  Gnorm:      0.093416  CPU:   11.920
  Cycle:    126 Energy:      -643.471975  Gnorm:      0.124202  CPU:   12.024
  Cycle:    127 Energy:      -643.498304  Gnorm:      0.148990  CPU:   12.109
  Cycle:    128 Energy:      -643.527340  Gnorm:      0.149348  CPU:   12.194
  Cycle:    129 Energy:      -643.566875  Gnorm:      0.169429  CPU:   12.299
  Cycle:    130 Energy:      -643.599664  Gnorm:      0.125050  CPU:   12.385
  Cycle:    131 Energy:      -643.620467  Gnorm:      0.128824  CPU:   12.468
  Cycle:    132 Energy:      -643.643487  Gnorm:      0.119778  CPU:   12.569
  Cycle:    133 Energy:      -643.666107  Gnorm:      0.095005  CPU:   12.674
  Cycle:    134 Energy:      -643.684618  Gnorm:      0.105892  CPU:   12.781
  Cycle:    135 Energy:      -643.701586  Gnorm:      0.106741  CPU:   12.866
  Cycle:    136 Energy:      -643.718266  Gnorm:      0.093681  CPU:   12.972
  Cycle:    137 Energy:      -643.734121  Gnorm:      0.086855  CPU:   13.074
  Cycle:    138 Energy:      -643.750486  Gnorm:      0.086310  CPU:   13.181
  Cycle:    139 Energy:      -643.770013  Gnorm:      0.137025  CPU:   13.284
  Cycle:    140 Energy:      -643.780676  Gnorm:      0.075690  CPU:   13.386
  Cycle:    141 Energy:      -643.791477  Gnorm:      0.068806  CPU:   13.489
  Cycle:    142 Energy:      -643.800722  Gnorm:      0.077602  CPU:   13.594
  Cycle:    143 Energy:      -643.810217  Gnorm:      0.083340  CPU:   13.679
  Cycle:    144 Energy:      -643.821501  Gnorm:      0.075494  CPU:   13.783
  Cycle:    145 Energy:      -643.831582  Gnorm:      0.074225  CPU:   13.890
  Cycle:    146 Energy:      -643.843232  Gnorm:      0.069619  CPU:   13.991
  Cycle:    147 Energy:      -643.858456  Gnorm:      0.078271  CPU:   14.095
  Cycle:    148 Energy:      -643.871210  Gnorm:      0.089314  CPU:   14.181
  Cycle:    149 Energy:      -643.884416  Gnorm:      0.130895  CPU:   14.265
  Cycle:    150 Energy:      -643.894949  Gnorm:      0.078271  CPU:   14.347
  Cycle:    151 Energy:      -643.904739  Gnorm:      0.068958  CPU:   14.431
  Cycle:    152 Energy:      -643.915222  Gnorm:      0.063562  CPU:   14.533
  Cycle:    153 Energy:      -643.921656  Gnorm:      0.071880  CPU:   14.616
  Cycle:    154 Energy:      -643.928982  Gnorm:      0.063066  CPU:   14.700
  Cycle:    155 Energy:      -643.937514  Gnorm:      0.067426  CPU:   14.802
  Cycle:    156 Energy:      -643.946186  Gnorm:      0.064682  CPU:   14.884
  Cycle:    157 Energy:      -643.953249  Gnorm:      0.066570  CPU:   14.967
  Cycle:    158 Energy:      -643.959204  Gnorm:      0.072204  CPU:   15.051
  Cycle:    159 Energy:      -643.967819  Gnorm:      0.073394  CPU:   15.139
  Cycle:    160 Energy:      -643.975087  Gnorm:      0.067085  CPU:   15.222
  Cycle:    161 Energy:      -643.980381  Gnorm:      0.062870  CPU:   15.306
  Cycle:    162 Energy:      -643.986546  Gnorm:      0.061247  CPU:   15.391
  Cycle:    163 Energy:      -643.993915  Gnorm:      0.061870  CPU:   15.494
  Cycle:    164 Energy:      -644.001483  Gnorm:      0.058332  CPU:   15.596
  Cycle:    165 Energy:      -644.007790  Gnorm:      0.067145  CPU:   15.678
  Cycle:    166 Energy:      -644.013775  Gnorm:      0.062899  CPU:   15.763
  Cycle:    167 Energy:      -644.022756  Gnorm:      0.067523  CPU:   15.869
  Cycle:    168 Energy:      -644.033387  Gnorm:      0.065768  CPU:   15.972
  Cycle:    169 Energy:      -644.060383  Gnorm:      0.175852  CPU:   16.073
  Cycle:    170 Energy:      -644.078786  Gnorm:      0.086768  CPU:   16.176
  Cycle:    171 Energy:      -644.087083  Gnorm:      0.066492  CPU:   16.259
  Cycle:    172 Energy:      -644.096140  Gnorm:      0.062170  CPU:   16.362
  Cycle:    173 Energy:      -644.103646  Gnorm:      0.065332  CPU:   16.447
  Cycle:    174 Energy:      -644.109244  Gnorm:      0.064718  CPU:   16.534
  Cycle:    175 Energy:      -644.116348  Gnorm:      0.060995  CPU:   16.640
  Cycle:    176 Energy:      -644.123973  Gnorm:      0.060400  CPU:   16.722
  Cycle:    177 Energy:      -644.129602  Gnorm:      0.070154  CPU:   16.805
  Cycle:    178 Energy:      -644.136065  Gnorm:      0.058647  CPU:   16.896
  Cycle:    179 Energy:      -644.141797  Gnorm:      0.058703  CPU:   16.977
  Cycle:    180 Energy:      -644.145199  Gnorm:      0.048160  CPU:   17.060
  Cycle:    181 Energy:      -644.151504  Gnorm:      0.074192  CPU:   17.144
  Cycle:    182 Energy:      -644.157531  Gnorm:      0.056526  CPU:   17.229
  Cycle:    183 Energy:      -644.162527  Gnorm:      0.056302  CPU:   17.312
  Cycle:    184 Energy:      -644.167539  Gnorm:      0.058970  CPU:   17.415
  Cycle:    185 Energy:      -644.172695  Gnorm:      0.059368  CPU:   17.502
  Cycle:    186 Energy:      -644.180168  Gnorm:      0.062148  CPU:   17.606
  Cycle:    187 Energy:      -644.189836  Gnorm:      0.063423  CPU:   17.710
  Cycle:    188 Energy:      -644.199329  Gnorm:      0.079930  CPU:   17.796
  Cycle:    189 Energy:      -644.214299  Gnorm:      0.142201  CPU:   17.900
  Cycle:    190 Energy:      -644.225740  Gnorm:      0.070681  CPU:   17.982
  Cycle:    191 Energy:      -644.232433  Gnorm:      0.052540  CPU:   18.064
  Cycle:    192 Energy:      -644.237955  Gnorm:      0.061895  CPU:   18.167
  Cycle:    193 Energy:      -644.243840  Gnorm:      0.070707  CPU:   18.249
  Cycle:    194 Energy:      -644.252294  Gnorm:      0.065290  CPU:   18.351
  Cycle:    195 Energy:      -644.258765  Gnorm:      0.057496  CPU:   18.432
  Cycle:    196 Energy:      -644.264144  Gnorm:      0.045225  CPU:   18.516
  Cycle:    197 Energy:      -644.268341  Gnorm:      0.070536  CPU:   18.600
  Cycle:    198 Energy:      -644.275843  Gnorm:      0.060598  CPU:   18.706
  Cycle:    199 Energy:      -644.283579  Gnorm:      0.071937  CPU:   18.791
  Cycle:    200 Energy:      -644.286942  Gnorm:      0.044833  CPU:   18.877
  Cycle:    201 Energy:      -644.290995  Gnorm:      0.063317  CPU:   18.961
  Cycle:    202 Energy:      -644.299853  Gnorm:      0.049187  CPU:   19.047
  Cycle:    203 Energy:      -644.303828  Gnorm:      0.058084  CPU:   19.130
  Cycle:    204 Energy:      -644.308241  Gnorm:      0.052762  CPU:   19.214
  Cycle:    205 Energy:      -644.315447  Gnorm:      0.060566  CPU:   19.296
  Cycle:    206 Energy:      -644.321241  Gnorm:      0.062423  CPU:   19.379
  Cycle:    207 Energy:      -644.327284  Gnorm:      0.067963  CPU:   19.485
  Cycle:    208 Energy:      -644.333888  Gnorm:      0.069613  CPU:   19.572
  Cycle:    209 Energy:      -644.348489  Gnorm:      0.107116  CPU:   19.676
  Cycle:    210 Energy:      -644.359701  Gnorm:      0.061045  CPU:   19.760
  Cycle:    211 Energy:      -644.364691  Gnorm:      0.055385  CPU:   19.844
  Cycle:    212 Energy:      -644.368302  Gnorm:      0.051726  CPU:   19.932
  Cycle:    213 Energy:      -644.373959  Gnorm:      0.060227  CPU:   20.037
  Cycle:    214 Energy:      -644.380088  Gnorm:      0.059877  CPU:   20.120
  Cycle:    215 Energy:      -644.385210  Gnorm:      0.059427  CPU:   20.202
  Cycle:    216 Energy:      -644.389789  Gnorm:      0.048262  CPU:   20.283
  Cycle:    217 Energy:      -644.395687  Gnorm:      0.062659  CPU:   20.385
  Cycle:    218 Energy:      -644.405636  Gnorm:      0.049921  CPU:   20.486
  Cycle:    219 Energy:      -644.412593  Gnorm:      0.073832  CPU:   20.593
  Cycle:    220 Energy:      -644.417192  Gnorm:      0.054403  CPU:   20.681
  Cycle:    221 Energy:      -644.421557  Gnorm:      0.055591  CPU:   20.764
  Cycle:    222 Energy:      -644.430343  Gnorm:      0.054184  CPU:   20.865
  Cycle:    223 Energy:      -644.434352  Gnorm:      0.049858  CPU:   20.948
  Cycle:    224 Energy:      -644.438168  Gnorm:      0.056184  CPU:   21.033
  Cycle:    225 Energy:      -644.442944  Gnorm:      0.059268  CPU:   21.135
  Cycle:    226 Energy:      -644.449166  Gnorm:      0.050613  CPU:   21.239
  Cycle:    227 Energy:      -644.454551  Gnorm:      0.045686  CPU:   21.324
  Cycle:    228 Energy:      -644.460688  Gnorm:      0.057679  CPU:   21.409
  Cycle:    229 Energy:      -644.469430  Gnorm:      0.105301  CPU:   21.513
  Cycle:    230 Energy:      -644.476156  Gnorm:      0.058755  CPU:   21.615
  Cycle:    231 Energy:      -644.481890  Gnorm:      0.047760  CPU:   21.699
  Cycle:    232 Energy:      -644.486066  Gnorm:      0.050337  CPU:   21.784
  Cycle:    233 Energy:      -644.489967  Gnorm:      0.060963  CPU:   21.869
  Cycle:    234 Energy:      -644.495310  Gnorm:      0.051002  CPU:   21.954
  Cycle:    235 Energy:      -644.499672  Gnorm:      0.044723  CPU:   22.038
  Cycle:    236 Energy:      -644.503699  Gnorm:      0.048280  CPU:   22.141
  Cycle:    237 Energy:      -644.509244  Gnorm:      0.061127  CPU:   22.223
  Cycle:    238 Energy:      -644.514084  Gnorm:      0.055266  CPU:   22.306
  Cycle:    239 Energy:      -644.517454  Gnorm:      0.047206  CPU:   22.389
  Cycle:    240 Energy:      -644.519687  Gnorm:      0.047334  CPU:   22.472
  Cycle:    241 Energy:      -644.524255  Gnorm:      0.060042  CPU:   22.554
  Cycle:    242 Energy:      -644.529680  Gnorm:      0.043605  CPU:   22.656
  Cycle:    243 Energy:      -644.533450  Gnorm:      0.042099  CPU:   22.757
  Cycle:    244 Energy:      -644.536717  Gnorm:      0.049042  CPU:   22.839
  Cycle:    245 Energy:      -644.541162  Gnorm:      0.057118  CPU:   22.927
  Cycle:    246 Energy:      -644.544577  Gnorm:      0.043995  CPU:   23.008
  Cycle:    247 Energy:      -644.548710  Gnorm:      0.045128  CPU:   23.090
  Cycle:    248 Energy:      -644.553834  Gnorm:      0.053068  CPU:   23.193
  Cycle:    249 Energy:      -644.563248  Gnorm:      0.112255  CPU:   23.298
  Cycle:    250 Energy:      -644.570290  Gnorm:      0.053252  CPU:   23.382
  Cycle:    251 Energy:      -644.574537  Gnorm:      0.042842  CPU:   23.465
  Cycle:    252 Energy:      -644.577228  Gnorm:      0.044541  CPU:   23.550
  Cycle:    253 Energy:      -644.580467  Gnorm:      0.048093  CPU:   23.635
  Cycle:    254 Energy:      -644.583831  Gnorm:      0.049035  CPU:   23.718
  Cycle:    255 Energy:      -644.587811  Gnorm:      0.036848  CPU:   23.800
  Cycle:    256 Energy:      -644.591300  Gnorm:      0.033732  CPU:   23.902
  Cycle:    257 Energy:      -644.595155  Gnorm:      0.049305  CPU:   24.004
  Cycle:    258 Energy:      -644.598093  Gnorm:      0.046110  CPU:   24.086
  Cycle:    259 Energy:      -644.600499  Gnorm:      0.042200  CPU:   24.171
  Cycle:    260 Energy:      -644.601838  Gnorm:      0.035268  CPU:   24.253
  Cycle:    261 Energy:      -644.604810  Gnorm:      0.042462  CPU:   24.358
  Cycle:    262 Energy:      -644.608011  Gnorm:      0.035922  CPU:   24.439
  Cycle:    263 Energy:      -644.610458  Gnorm:      0.045833  CPU:   24.544
  Cycle:    264 Energy:      -644.613186  Gnorm:      0.039113  CPU:   24.626
  Cycle:    265 Energy:      -644.615746  Gnorm:      0.035602  CPU:   24.709
  Cycle:    266 Energy:      -644.618253  Gnorm:      0.041556  CPU:   24.791
  Cycle:    267 Energy:      -644.620690  Gnorm:      0.044337  CPU:   24.873
  Cycle:    268 Energy:      -644.623908  Gnorm:      0.047421  CPU:   24.955
  Cycle:    269 Energy:      -644.628497  Gnorm:      0.058947  CPU:   25.041
  Cycle:    270 Energy:      -644.631887  Gnorm:      0.041950  CPU:   25.123
  Cycle:    271 Energy:      -644.634056  Gnorm:      0.039570  CPU:   25.206
  Cycle:    272 Energy:      -644.636267  Gnorm:      0.037625  CPU:   25.289
  Cycle:    273 Energy:      -644.639033  Gnorm:      0.034690  CPU:   25.378
  Cycle:    274 Energy:      -644.640354  Gnorm:      0.031084  CPU:   25.460
  Cycle:    275 Energy:      -644.642411  Gnorm:      0.039834  CPU:   25.546
  Cycle:    276 Energy:      -644.644697  Gnorm:      0.031968  CPU:   25.630
  Cycle:    277 Energy:      -644.648075  Gnorm:      0.036795  CPU:   25.733
  Cycle:    278 Energy:      -644.650203  Gnorm:      0.030665  CPU:   25.817
  Cycle:    279 Energy:      -644.651734  Gnorm:      0.045625  CPU:   25.903
  Cycle:    280 Energy:      -644.652923  Gnorm:      0.027264  CPU:   25.991
  Cycle:    281 Energy:      -644.654750  Gnorm:      0.033515  CPU:   26.073
  Cycle:    282 Energy:      -644.657067  Gnorm:      0.031264  CPU:   26.157
  Cycle:    283 Energy:      -644.658630  Gnorm:      0.039164  CPU:   26.241
  Cycle:    284 Energy:      -644.660788  Gnorm:      0.026925  CPU:   26.323
  Cycle:    285 Energy:      -644.662095  Gnorm:      0.028293  CPU:   26.406
  Cycle:    286 Energy:      -644.664109  Gnorm:      0.039323  CPU:   26.489
  Cycle:    287 Energy:      -644.665814  Gnorm:      0.034472  CPU:   26.572
  Cycle:    288 Energy:      -644.667813  Gnorm:      0.030964  CPU:   26.655
  Cycle:    289 Energy:      -644.669857  Gnorm:      0.049150  CPU:   26.758
  Cycle:    290 Energy:      -644.671500  Gnorm:      0.030816  CPU:   26.840
  Cycle:    291 Energy:      -644.672577  Gnorm:      0.022776  CPU:   26.927
  Cycle:    292 Energy:      -644.673673  Gnorm:      0.029699  CPU:   27.010
  Cycle:    293 Energy:      -644.675822  Gnorm:      0.026473  CPU:   27.117
  Cycle:    294 Energy:      -644.676589  Gnorm:      0.023435  CPU:   27.200
  Cycle:    295 Energy:      -644.677963  Gnorm:      0.037295  CPU:   27.288
  Cycle:    296 Energy:      -644.680464  Gnorm:      0.031609  CPU:   27.390
  Cycle:    297 Energy:      -644.682257  Gnorm:      0.028749  CPU:   27.477
  Cycle:    298 Energy:      -644.683349  Gnorm:      0.031070  CPU:   27.560
  Cycle:    299 Energy:      -644.685016  Gnorm:      0.038744  CPU:   27.643
  Cycle:    300 Energy:      -644.686164  Gnorm:      0.024554  CPU:   27.725
  Cycle:    301 Energy:      -644.686974  Gnorm:      0.023744  CPU:   27.808
  Cycle:    302 Energy:      -644.687638  Gnorm:      0.019756  CPU:   27.891
  Cycle:    303 Energy:      -644.688853  Gnorm:      0.029539  CPU:   27.973
  Cycle:    304 Energy:      -644.690804  Gnorm:      0.029981  CPU:   28.075
  Cycle:    305 Energy:      -644.691688  Gnorm:      0.024820  CPU:   28.157
  Cycle:    306 Energy:      -644.692699  Gnorm:      0.023191  CPU:   28.240
  Cycle:    307 Energy:      -644.694429  Gnorm:      0.037035  CPU:   28.323
  Cycle:    308 Energy:      -644.696414  Gnorm:      0.038326  CPU:   28.406
  Cycle:    309 Energy:      -644.697843  Gnorm:      0.028549  CPU:   28.488
  Cycle:    310 Energy:      -644.698505  Gnorm:      0.024347  CPU:   28.571
  Cycle:    311 Energy:      -644.699898  Gnorm:      0.027229  CPU:   28.654
  Cycle:    312 Energy:      -644.700896  Gnorm:      0.019232  CPU:   28.739
  Cycle:    313 Energy:      -644.701352  Gnorm:      0.020344  CPU:   28.822
  Cycle:    314 Energy:      -644.701989  Gnorm:      0.021157  CPU:   28.911
  Cycle:    315 Energy:      -644.704276  Gnorm:      0.024371  CPU:   29.014
  Cycle:    316 Energy:      -644.705578  Gnorm:      0.026674  CPU:   29.097
  Cycle:    317 Energy:      -644.706645  Gnorm:      0.029030  CPU:   29.183
  Cycle:    318 Energy:      -644.707677  Gnorm:      0.024915  CPU:   29.268
  Cycle:    319 Energy:      -644.712069  Gnorm:      0.061385  CPU:   29.370
  Cycle:    320 Energy:      -644.714548  Gnorm:      0.037461  CPU:   29.452
  Cycle:    321 Energy:      -644.716189  Gnorm:      0.025739  CPU:   29.539
  Cycle:    322 Energy:      -644.717072  Gnorm:      0.023148  CPU:   29.620
  Cycle:    323 Energy:      -644.718186  Gnorm:      0.021069  CPU:   29.708
  Cycle:    324 Energy:      -644.719263  Gnorm:      0.023317  CPU:   29.790
  Cycle:    325 Energy:      -644.720151  Gnorm:      0.024850  CPU:   29.874
  Cycle:    326 Energy:      -644.720706  Gnorm:      0.014170  CPU:   29.956
  Cycle:    327 Energy:      -644.721262  Gnorm:      0.017840  CPU:   30.040
  Cycle:    328 Energy:      -644.721714  Gnorm:      0.021663  CPU:   30.123
  Cycle:    329 Energy:      -644.722406  Gnorm:      0.016420  CPU:   30.206
  Cycle:    330 Energy:      -644.722689  Gnorm:      0.016387  CPU:   30.289
  Cycle:    331 Energy:      -644.723088  Gnorm:      0.016344  CPU:   30.372
  Cycle:    332 Energy:      -644.723694  Gnorm:      0.017214  CPU:   30.455
  Cycle:    333 Energy:      -644.724160  Gnorm:      0.021018  CPU:   30.538
  Cycle:    334 Energy:      -644.724831  Gnorm:      0.018075  CPU:   30.625
  Cycle:    335 Energy:      -644.725425  Gnorm:      0.020334  CPU:   30.708
  Cycle:    336 Energy:      -644.726318  Gnorm:      0.021533  CPU:   30.790
  Cycle:    337 Energy:      -644.727276  Gnorm:      0.022084  CPU:   30.878
  Cycle:    338 Energy:      -644.728017  Gnorm:      0.028777  CPU:   30.961
  Cycle:    339 Energy:      -644.729425  Gnorm:      0.030280  CPU:   31.044
  Cycle:    340 Energy:      -644.730385  Gnorm:      0.025947  CPU:   31.134
  Cycle:    341 Energy:      -644.731061  Gnorm:      0.021430  CPU:   31.221
  Cycle:    342 Energy:      -644.732012  Gnorm:      0.019777  CPU:   31.303
  Cycle:    343 Energy:      -644.732834  Gnorm:      0.016289  CPU:   31.386
  Cycle:    344 Energy:      -644.733266  Gnorm:      0.019045  CPU:   31.469
  Cycle:    345 Energy:      -644.733717  Gnorm:      0.016725  CPU:   31.553
  Cycle:    346 Energy:      -644.734163  Gnorm:      0.014686  CPU:   31.636
  Cycle:    347 Energy:      -644.734534  Gnorm:      0.016529  CPU:   31.720
  Cycle:    348 Energy:      -644.734888  Gnorm:      0.014085  CPU:   31.805
  Cycle:    349 Energy:      -644.735144  Gnorm:      0.013700  CPU:   31.892
  Cycle:    350 Energy:      -644.735331  Gnorm:      0.012681  CPU:   31.983
  Cycle:    351 Energy:      -644.735667  Gnorm:      0.016180  CPU:   32.072
  Cycle:    352 Energy:      -644.736017  Gnorm:      0.014657  CPU:   32.155
  Cycle:    353 Energy:      -644.736385  Gnorm:      0.015228  CPU:   32.247
  Cycle:    354 Energy:      -644.736772  Gnorm:      0.017741  CPU:   32.334
  Cycle:    355 Energy:      -644.737161  Gnorm:      0.014874  CPU:   32.422
  Cycle:    356 Energy:      -644.737782  Gnorm:      0.017599  CPU:   32.508
  Cycle:    357 Energy:      -644.738421  Gnorm:      0.017810  CPU:   32.591
  Cycle:    358 Energy:      -644.738948  Gnorm:      0.022244  CPU:   32.679
  Cycle:    359 Energy:      -644.739608  Gnorm:      0.024326  CPU:   32.763
  Cycle:    360 Energy:      -644.740099  Gnorm:      0.019687  CPU:   32.849
  Cycle:    361 Energy:      -644.740590  Gnorm:      0.016231  CPU:   32.956
  Cycle:    362 Energy:      -644.741026  Gnorm:      0.018191  CPU:   33.040
  Cycle:    363 Energy:      -644.741679  Gnorm:      0.013779  CPU:   33.142
  Cycle:    364 Energy:      -644.742094  Gnorm:      0.015621  CPU:   33.225
  Cycle:    365 Energy:      -644.742375  Gnorm:      0.013839  CPU:   33.308
  Cycle:    366 Energy:      -644.742598  Gnorm:      0.011357  CPU:   33.410
  Cycle:    367 Energy:      -644.742941  Gnorm:      0.012662  CPU:   33.516
  Cycle:    368 Energy:      -644.743188  Gnorm:      0.013125  CPU:   33.599
  Cycle:    369 Energy:      -644.743387  Gnorm:      0.012661  CPU:   33.682
  Cycle:    370 Energy:      -644.743553  Gnorm:      0.012192  CPU:   33.766
  Cycle:    371 Energy:      -644.743795  Gnorm:      0.013116  CPU:   33.849
  Cycle:    372 Energy:      -644.744113  Gnorm:      0.011276  CPU:   33.932
  Cycle:    373 Energy:      -644.744301  Gnorm:      0.013299  CPU:   34.014
  Cycle:    374 Energy:      -644.744562  Gnorm:      0.013323  CPU:   34.099
  Cycle:    375 Energy:      -644.744916  Gnorm:      0.013083  CPU:   34.183
  Cycle:    376 Energy:      -644.745379  Gnorm:      0.015477  CPU:   34.268
  Cycle:    377 Energy:      -644.745716  Gnorm:      0.014502  CPU:   34.351
  Cycle:    378 Energy:      -644.746099  Gnorm:      0.015823  CPU:   34.434
  Cycle:    379 Energy:      -644.746463  Gnorm:      0.019882  CPU:   34.518
  Cycle:    380 Energy:      -644.746787  Gnorm:      0.015186  CPU:   34.603
  Cycle:    381 Energy:      -644.747148  Gnorm:      0.014140  CPU:   34.686
  Cycle:    382 Energy:      -644.747463  Gnorm:      0.014774  CPU:   34.773
  Cycle:    383 Energy:      -644.747859  Gnorm:      0.013510  CPU:   34.857
  Cycle:    384 Energy:      -644.748099  Gnorm:      0.014063  CPU:   34.939
  Cycle:    385 Energy:      -644.748334  Gnorm:      0.011150  CPU:   35.023
  Cycle:    386 Energy:      -644.748538  Gnorm:      0.009342  CPU:   35.107
  ** Hessian has required structure
  Cycle:    387 Energy:      -644.753514  Gnorm:      0.007562  CPU:   35.395
  ** Hessian has required structure
  Cycle:    388 Energy:      -644.758705  Gnorm:      0.006352  CPU:   35.541
  ** Hessian has required structure
  Cycle:    389 Energy:      -644.763877  Gnorm:      0.007575  CPU:   35.682
  ** Hessian has required structure
  Cycle:    390 Energy:      -644.769330  Gnorm:      0.013688  CPU:   35.823
  ** Hessian has required structure
  Cycle:    391 Energy:      -644.785983  Gnorm:      0.060317  CPU:   36.008
  ** Hessian has wrong structure
  ** Imaginary eigenvectors =   1
  Cycle:    392 Energy:      -644.584732  Gnorm:      0.252305  CPU:   36.227
  ** Hessian has wrong structure
  ** Imaginary eigenvectors =   1
  Cycle:    393 Energy:      -644.762005  Gnorm:      0.231805  CPU:   36.524
  ** Hessian has required structure
  ** Hessian has wrong structure
  ** Imaginary eigenvectors =   1
  ** Hessian has wrong structure
  ** Imaginary eigenvectors =   1
  Cycle:    394 Energy:      -645.276012  Gnorm:      0.321605  CPU:   37.078
  ** Hessian has required structure
  Cycle:    395 Energy:      -645.537183  Gnorm:      0.081848  CPU:   37.183
  ** Hessian has required structure
  Cycle:    396 Energy:      -645.606204  Gnorm:      0.081112  CPU:   37.289
  ** Hessian has required structure
  Cycle:    397 Energy:      -645.649643  Gnorm:      0.073147  CPU:   37.398
  ** Hessian has required structure
  Cycle:    398 Energy:      -645.687673  Gnorm:      0.066381  CPU:   37.528
  ** Hessian has required structure
  Cycle:    399 Energy:      -645.705605  Gnorm:      0.061085  CPU:   37.639
  ** Hessian has required structure
  Cycle:    400 Energy:      -645.728538  Gnorm:      0.063446  CPU:   37.767
  ** Hessian has required structure
  Cycle:    401 Energy:      -645.749274  Gnorm:      0.069242  CPU:   37.875
  ** Hessian has required structure
  Cycle:    402 Energy:      -645.770732  Gnorm:      0.063775  CPU:   37.998
  ** Hessian has required structure
  Cycle:    403 Energy:      -645.780456  Gnorm:      0.038274  CPU:   38.121
  ** Hessian has required structure
  Cycle:    404 Energy:      -645.793537  Gnorm:      0.017610  CPU:   38.349
  ** Hessian has required structure
  Cycle:    405 Energy:      -645.795431  Gnorm:      0.005252  CPU:   38.474
  ** Hessian has required structure
  Cycle:    406 Energy:      -645.796009  Gnorm:      0.004058  CPU:   38.579
  ** Hessian has required structure
  Cycle:    407 Energy:      -645.796099  Gnorm:      0.000862  CPU:   38.703
  ** Hessian has required structure


  **** Optimisation achieved ****


  Final enthalpy =    -645.79610565 eV      
  Final Gnorm    =       0.00028817

  Components of enthalpy : 

--------------------------------------------------------------------------------
  Interatomic potentials     =         223.69939742 eV    
  Monopole - monopole (real) =        -510.76282500 eV    
  Monopole - monopole (recip)=        -488.10525063 eV    
  Monopole - monopole (total)=        -998.86807563 eV    
  Pressure*volume            =         129.37257256 eV    
--------------------------------------------------------------------------------
  Total lattice enthalpy     =        -645.79610565 eV    
--------------------------------------------------------------------------------
  Total lattice enthalpy     =          -62309.4523 kJ/(mole unit cells)
--------------------------------------------------------------------------------

  Final fractional coordinates of atoms :

--------------------------------------------------------------------------------
   No.  Atomic        x           y          z          Radius
        Label       (Frac)      (Frac)     (Frac)       (Angs) 
--------------------------------------------------------------------------------
     1  Al    c     0.193958    0.152685    0.264326    0.000000
     2  Al    c     0.247487    0.843475    0.696201    0.000000
     3  Al    c     0.971308    0.317198    0.415756    0.000000
     4  Al    c     0.204727    0.497037    0.987215    0.000000
     5  Al    c     0.528241    0.401349    0.050493    0.000000
     6  Al    c     0.965716    0.661305    0.113164    0.000000
     7  Al    c     0.934023    0.946850    0.685680    0.000000
     8  Al    c     0.622502    0.870295    0.195481    0.000000
     9  Mg    c     0.724275    0.142415    0.830199    0.000000
    10  Mg    c     0.762878    0.503393    0.566930    0.000000
    11  Mg    c     0.460946    0.635119    0.590605    0.000000
    12  Mg    c     0.453408    0.087041    0.360463    0.000000
    13  O     c     0.444202    0.567467    0.110763    0.000000
    14  O     c     0.669601    0.356154    0.837157    0.000000
    15  O     c     0.153659    0.953290    0.413636    0.000000
    16  O     c     0.197476    0.365104    0.576439    0.000000
    17  O     c     0.066541    0.221163    0.042736    0.000000
    18  O     c     0.332809    0.115855    0.958870    0.000000
    19  O     c     0.714307    0.857726    0.861884    0.000000
    20  O     c     0.480368    0.372714    0.440475    0.000000
    21  O     c     0.850100    0.045363    0.469727    0.000000
    22  O     c     0.472173    0.892556    0.516227    0.000000
    23  O     c     0.084868    0.581194    0.350937    0.000000
    24  O     c     0.994572    0.472476    0.814667    0.000000
    25  O     c     0.787918    0.667553    0.317843    0.000000
    26  O     c     0.723021    0.204848    0.260681    0.000000
    27  O     c     0.000631    0.808055    0.862402    0.000000
    28  O     c     0.357352    0.790474    0.965313    0.000000
--------------------------------------------------------------------------------

  Final Cartesian lattice vectors (Angstroms) :

        6.873490   -4.014214    0.126990
       -0.409908    7.328797   -0.791854
       -0.600345   -1.147493    4.408359


  Final cell parameters and derivatives :

--------------------------------------------------------------------------------
       a            7.960835 Angstrom     dE/de1(xx)    -0.002017 eV/strain
       b            7.382840 Angstrom     dE/de2(yy)    -0.002919 eV/strain
       c            4.594647 Angstrom     dE/de3(zz)     0.008587 eV/strain
       alpha      110.094544 Degrees      dE/de4(yz)    -0.005260 eV/strain
       beta        88.371263 Degrees      dE/de5(xz)     0.002046 eV/strain
       gamma      123.380965 Degrees      dE/de6(xy)     0.003898 eV/strain
--------------------------------------------------------------------------------

  Primitive cell volume =           207.279313 Angs**3

  Density of cell =      4.559040 g/cm**3

  Non-primitive cell volume =           207.279313 Angs**3


  Final internal derivatives :

--------------------------------------------------------------------------------
   No.  Atomic          a             b             c           Radius
        Label          (eV)          (eV)          (eV)        (eV/Angs)
--------------------------------------------------------------------------------
      1 Al    c       0.000000      0.000000      0.000000      0.000000
      2 Al    c       0.001629      0.004455     -0.002660      0.000000
      3 Al    c      -0.003492      0.001957      0.000309      0.000000
      4 Al    c       0.002035     -0.001111      0.001574      0.000000
      5 Al    c      -0.000671      0.003329     -0.004809      0.000000
      6 Al    c       0.001149     -0.000024      0.002348      0.000000
      7 Al    c      -0.000020     -0.000020     -0.000999      0.000000
      8 Al    c      -0.001168      0.000060      0.000788      0.000000
      9 Mg    c      -0.003141      0.002290     -0.000276      0.000000
     10 Mg    c      -0.002294     -0.003418      0.002797      0.000000
     11 Mg    c       0.000335     -0.001630     -0.000068      0.000000
     12 Mg    c      -0.005774      0.005476     -0.000717      0.000000
     13 O     c       0.004155     -0.004521     -0.000118      0.000000
     14 O     c      -0.002091      0.003503      0.001000      0.000000
     15 O     c       0.000166      0.001590     -0.000481      0.000000
     16 O     c      -0.003439     -0.000609      0.001984      0.000000
     17 O     c      -0.001336     -0.000023     -0.000217      0.000000
     18 O     c       0.003310     -0.000160     -0.004620      0.000000
     19 O     c       0.001875      0.000154     -0.000925      0.000000
     20 O     c       0.004125     -0.007804      0.006883      0.000000
     21 O     c       0.000863      0.000504      0.000313      0.000000
     22 O     c      -0.000914      0.000673     -0.000149      0.000000
     23 O     c      -0.000589     -0.001277      0.000313      0.000000
     24 O     c       0.001160      0.003481     -0.004421      0.000000
     25 O     c      -0.000225      0.000472      0.000237      0.000000
     26 O     c       0.000454     -0.000402     -0.000354      0.000000
     27 O     c       0.000533     -0.003459      0.000884      0.000000
     28 O     c      -0.000914      0.000107      0.000491      0.000000
--------------------------------------------------------------------------------
  Maximum abs         0.005774      0.007804      0.006883      0.000000
--------------------------------------------------------------------------------


  Time to end of optimisation =      38.8072 seconds


  Peak dynamic memory used =       2.03 MB 


  Timing analysis for GULP :

--------------------------------------------------------------------------------
  Task / Subroutine                                          Time (Seconds)
--------------------------------------------------------------------------------
  Calculation of reciprocal space energy and derivatives          1.2327
  Calculation of real space energy and derivatives               36.9781
  Calculation and manipulation of Hessian matrix                  0.6759
  Global summation overhead                                       0.0037
--------------------------------------------------------------------------------
  Total CPU time                                                 38.8073
--------------------------------------------------------------------------------


  Job Finished at 16:50.03 11th June       2024                               

