********************************************************************************
*                       GENERAL UTILITY LATTICE PROGRAM                        *
*                                 Julian Gale                                  *
*                       Curtin Institute for Computation                       *
*                    School of Molecular and Life Sciences                     *
*                    Curtin University, Western Australia                      *
********************************************************************************
* Version = 6.0.0 * Last modified =  12th July 2021                            *
********************************************************************************
*  optimise     - perform optimisation run                                     *
*  conp         - constant pressure calculation                                *
*  nosymmetry   - turn off symmetry after initial structure generation         *
*  conjugate    - use conjugate gradients minimiser                            *
********************************************************************************

  Job Started  at 16:50.21 11th June       2024                               

  Number of CPUs =     1


  Total number of configurations input =      1

********************************************************************************
*  Input for Configuration =   1                                               *
********************************************************************************

  Formula = Al8Mg4O16                                                   

  Number of irreducible atoms/shells =      28


  Total number atoms/shells =      28

  Dimensionality = 3               :  Bulk   



  Cartesian lattice vectors (Angstroms) :

        5.235216    0.000000    0.000000
        0.000000    6.037804    0.000000
        0.000000    0.000000    6.374237

  Cell parameters (Angstroms/Degrees):

  a =       5.2352    alpha =  90.0000
  b =       6.0378    beta  =  90.0000
  c =       6.3742    gamma =  90.0000

  Initial cell volume =         201.484576 Angs**3

  Temperature of configuration =   0.00     K 

  Pressure of configuration =       100.000 GPa 

  Fractional coordinates of asymmetric unit :

--------------------------------------------------------------------------------
   No.  Atomic       x           y          z         Charge      Occupancy
        Label      (Frac)      (Frac)     (Frac)        (e)         (Frac)  
--------------------------------------------------------------------------------
      1 Al    c    0.962491    0.530166    0.869549     3.00000    1.000000    
      2 Al    c    0.952993 *  0.108329 *  0.869549 *   3.00000    1.000000    
      3 Al    c    0.314498 *  0.168661 *  0.045935 *   3.00000    1.000000    
      4 Al    c    0.323996 *  0.746823 *  0.045935 *   3.00000    1.000000    
      5 Al    c    0.314498 *  0.746823 *  0.407440 *   3.00000    1.000000    
      6 Al    c    0.323996 *  0.168661 *  0.407440 *   3.00000    1.000000    
      7 Al    c    0.962491 *  0.108329 *  0.231055 *   3.00000    1.000000    
      8 Al    c    0.952993 *  0.530166 *  0.231055 *   3.00000    1.000000    
      9 Mg    c    0.319247 *  0.957742 *  0.079292 *   2.00000    1.000000    
     10 Mg    c    0.957742 *  0.319247 *  0.559203 *   2.00000    1.000000    
     11 Mg    c    0.957742 *  0.319247 *  0.197697 *   2.00000    1.000000    
     12 Mg    c    0.319247 *  0.957742 *  0.717787 *   2.00000    1.000000    
     13 O     c    0.000000 *  0.000000 *  0.000000 *  -2.00000    1.000000    
     14 O     c    0.638495 *  0.638495 *  0.000000 *  -2.00000    1.000000    
     15 O     c    0.000000 *  0.638495 *  0.638495 *  -2.00000    1.000000    
     16 O     c    0.638495 *  0.276989 *  0.638495 *  -2.00000    1.000000    
     17 O     c    0.105102 *  0.830994 *  0.268240 *  -2.00000    1.000000    
     18 O     c    0.533393 *  0.084490 *  0.268240 *  -2.00000    1.000000    
     19 O     c    0.171888 *  0.192499 *  0.647244 *  -2.00000    1.000000    
     20 O     c    0.743597 *  0.445996 *  0.647244 *  -2.00000    1.000000    
     21 O     c    0.171888 *  0.445996 *  0.008750 *  -2.00000    1.000000    
     22 O     c    0.743597 *  0.192499 *  0.008750 *  -2.00000    1.000000    
     23 O     c    0.105102 *  0.084490 *  0.629745 *  -2.00000    1.000000    
     24 O     c    0.533393 *  0.830994 *  0.629745 *  -2.00000    1.000000    
     25 O     c    0.000000 *  0.000000 *  0.638495 *  -2.00000    1.000000    
     26 O     c    0.638495 *  0.638495 *  0.638495 *  -2.00000    1.000000    
     27 O     c    0.000000 *  0.638495 *  0.000000 *  -2.00000    1.000000    
     28 O     c    0.638495 *  0.276989 *  0.000000 *  -2.00000    1.000000    
--------------------------------------------------------------------------------



********************************************************************************
*  General input information                                                   *
********************************************************************************

  Species output for all configurations : 

--------------------------------------------------------------------------------
  Species    Type    Atomic    Atomic    Charge       Radii (Angs)     Library
                     Number     Mass       (e)     Cova   Ionic  VDW   Symbol
--------------------------------------------------------------------------------
    Mg       Core       12      24.31   2.000000   1.100  0.000  1.640          
    Al       Core       13      26.98   3.000000   1.350  0.000  2.050          
    O        Core        8      16.00  -2.000000   0.730  0.000  1.360          
--------------------------------------------------------------------------------


  Lattice summation method               =    Ewald          (3-D)
                                         =    Parry          (2-D)
                                         =    Saunders et al (1-D)
  Accuracy factor for lattice sums       =   12.000


  Analytic derivatives to be used

  Time limit = Infinity

  Maximum range for interatomic potentials =    100000.000000 Angstroms

  General interatomic potentials :

--------------------------------------------------------------------------------
Atom  Types   Potential      Parameter       Value         Units   Cutoffs(Ang)
  1     2                                                            Min /  Max 
--------------------------------------------------------------------------------
O    c Mg   c Lennard       Lennard-Jones A  1.5000000    eV*Ang^m  0.000  6.000
                            Lennard-Jones B  0.0000000    eV*Ang^n  
                            Exponent m        12          None
                            Exponent n         6          None
--------------------------------------------------------------------------------
O    c Al   c Lennard       Lennard-Jones A  1.5000000    eV*Ang^m  0.000  6.000
                            Lennard-Jones B  0.0000000    eV*Ang^n  
                            Exponent m        12          None
                            Exponent n         6          None
--------------------------------------------------------------------------------
O    c O    c Lennard       Lennard-Jones A  1.5000000    eV*Ang^m  0.000  6.000
                            Lennard-Jones B  0.0000000    eV*Ang^n  
                            Exponent m        12          None
                            Exponent n         6          None
--------------------------------------------------------------------------------
Mg   c Mg   c Lennard       Lennard-Jones A  1.5000000    eV*Ang^m  0.000  6.000
                            Lennard-Jones B  0.0000000    eV*Ang^n  
                            Exponent m        12          None
                            Exponent n         6          None
--------------------------------------------------------------------------------
Mg   c Al   c Lennard       Lennard-Jones A  1.5000000    eV*Ang^m  0.000  6.000
                            Lennard-Jones B  0.0000000    eV*Ang^n  
                            Exponent m        12          None
                            Exponent n         6          None
--------------------------------------------------------------------------------
Al   c Al   c Lennard       Lennard-Jones A  1.5000000    eV*Ang^m  0.000  6.000
                            Lennard-Jones B  0.0000000    eV*Ang^n  
                            Exponent m        12          None
                            Exponent n         6          None
--------------------------------------------------------------------------------
O    c Mg   c Buckingham    Buckingham A     1428.5000    eV        0.000  7.000
                            Buckingham rho  0.29450000    Ang       
                            Buckingham C     0.0000000    eV*Ang^6  
--------------------------------------------------------------------------------
O    c Al   c Buckingham    Buckingham A     1114.9000    eV        0.000  7.000
                            Buckingham rho  0.31180000    Ang       
                            Buckingham C     0.0000000    eV*Ang^6  
--------------------------------------------------------------------------------
O    c O    c Buckingham    Buckingham A     2023.8000    eV        0.000  7.000
                            Buckingham rho  0.26740000    Ang       
                            Buckingham C     0.0000000    eV*Ang^6  
--------------------------------------------------------------------------------

********************************************************************************
*  Output for configuration   1                                                *
********************************************************************************


  Components of enthalpy : 

--------------------------------------------------------------------------------
  Interatomic potentials     =         881.46987656 eV    
  Monopole - monopole (real) =         -88.56646731 eV    
  Monopole - monopole (recip)=        -421.47463017 eV    
  Monopole - monopole (total)=        -510.04109748 eV    
  Pressure*volume            =         125.75581034 eV    
--------------------------------------------------------------------------------
  Total lattice enthalpy     =         497.18458943 eV    
--------------------------------------------------------------------------------
  Total lattice enthalpy     =           47970.7127 kJ/(mole unit cells)
--------------------------------------------------------------------------------


  Number of variables =       87

  Maximum number of calculations  =           850
  Maximum Hessian update interval =            10
  Maximum step size               =   1.000000000
  Maximum parameter tolerance     =   0.000010000
  Maximum function  tolerance     =   0.000010000
  Maximum gradient  tolerance     =   0.001000000
  Maximum gradient  component     =   0.010000000

  Cell parameters to be optimised using strains

  Conjugate gradient optimiser to be used

  Lower half triangular hessian to be used

  Minimiser to switch to RFO
  When gradient norm is less than     0.010000

  Start of bulk optimisation :

  Cycle:      0 Energy:       497.184589  Gnorm:    179.240717  CPU:    0.033
  Cycle:      1 Energy:      -134.883535  Gnorm:     24.216688  CPU:    0.117
  Cycle:      2 Energy:      -406.074051  Gnorm:     11.449846  CPU:    0.198
  Cycle:      3 Energy:      -504.523525  Gnorm:      5.804369  CPU:    0.252
  Cycle:      4 Energy:      -552.663928  Gnorm:      4.456857  CPU:    0.299
  Cycle:      5 Energy:      -576.309692  Gnorm:      3.036393  CPU:    0.345
  Cycle:      6 Energy:      -589.545179  Gnorm:      2.542867  CPU:    0.391
  Cycle:      7 Energy:      -596.924373  Gnorm:      2.197494  CPU:    0.437
  Cycle:      8 Energy:      -604.028145  Gnorm:      1.827781  CPU:    0.483
  Cycle:      9 Energy:      -609.869436  Gnorm:      1.765539  CPU:    0.529
  Cycle:     10 Energy:      -612.324841  Gnorm:      1.297307  CPU:    0.569
  Cycle:     11 Energy:      -614.821081  Gnorm:      1.163886  CPU:    0.625
  Cycle:     12 Energy:      -617.160931  Gnorm:      1.247845  CPU:    0.688
  Cycle:     13 Energy:      -619.477963  Gnorm:      1.243304  CPU:    0.764
  Cycle:     14 Energy:      -620.979419  Gnorm:      0.902626  CPU:    0.841
  Cycle:     15 Energy:      -622.838100  Gnorm:      0.914963  CPU:    0.936
  Cycle:     16 Energy:      -624.331667  Gnorm:      1.119037  CPU:    1.015
  Cycle:     17 Energy:      -625.668212  Gnorm:      0.999844  CPU:    1.093
  Cycle:     18 Energy:      -627.286974  Gnorm:      0.972769  CPU:    1.190
  Cycle:     19 Energy:      -628.756602  Gnorm:      0.969904  CPU:    1.288
  Cycle:     20 Energy:      -629.424773  Gnorm:      0.755718  CPU:    1.369
  Cycle:     21 Energy:      -630.351948  Gnorm:      0.636584  CPU:    1.468
  Cycle:     22 Energy:      -630.914515  Gnorm:      0.672839  CPU:    1.550
  Cycle:     23 Energy:      -631.556594  Gnorm:      0.678847  CPU:    1.649
  Cycle:     24 Energy:      -632.375600  Gnorm:      0.590818  CPU:    1.754
  Cycle:     25 Energy:      -633.348866  Gnorm:      0.576725  CPU:    1.855
  Cycle:     26 Energy:      -633.859339  Gnorm:      0.647774  CPU:    1.943
  Cycle:     27 Energy:      -634.235870  Gnorm:      0.510777  CPU:    2.031
  Cycle:     28 Energy:      -634.557023  Gnorm:      0.435233  CPU:    2.137
  Cycle:     29 Energy:      -634.835249  Gnorm:      0.413435  CPU:    2.245
  Cycle:     30 Energy:      -634.959868  Gnorm:      0.300889  CPU:    2.336
  Cycle:     31 Energy:      -635.120932  Gnorm:      0.339435  CPU:    2.445
  Cycle:     32 Energy:      -635.272413  Gnorm:      0.337341  CPU:    2.529
  Cycle:     33 Energy:      -635.416620  Gnorm:      0.358542  CPU:    2.637
  Cycle:     34 Energy:      -635.581996  Gnorm:      0.316843  CPU:    2.740
  Cycle:     35 Energy:      -635.752084  Gnorm:      0.333840  CPU:    2.848
  Cycle:     36 Energy:      -636.000504  Gnorm:      0.392603  CPU:    2.956
  Cycle:     37 Energy:      -636.448934  Gnorm:      0.512076  CPU:    3.065
  Cycle:     38 Energy:      -636.899414  Gnorm:      0.642143  CPU:    3.155
  Cycle:     39 Energy:      -637.312581  Gnorm:      0.553643  CPU:    3.241
  Cycle:     40 Energy:      -637.661951  Gnorm:      0.602614  CPU:    3.348
  Cycle:     41 Energy:      -638.221782  Gnorm:      0.605879  CPU:    3.460
  Cycle:     42 Energy:      -638.779508  Gnorm:      0.513870  CPU:    3.570
  Cycle:     43 Energy:      -639.154882  Gnorm:      0.573869  CPU:    3.679
  Cycle:     44 Energy:      -639.715019  Gnorm:      0.575261  CPU:    3.788
  Cycle:     45 Energy:      -640.248170  Gnorm:      0.505410  CPU:    3.900
  Cycle:     46 Energy:      -640.667024  Gnorm:      0.472314  CPU:    4.011
  Cycle:     47 Energy:      -641.161109  Gnorm:      0.475461  CPU:    4.118
  Cycle:     48 Energy:      -641.531427  Gnorm:      0.476761  CPU:    4.204
  Cycle:     49 Energy:      -641.762394  Gnorm:      0.351081  CPU:    4.291
  Cycle:     50 Energy:      -641.863891  Gnorm:      0.304039  CPU:    4.377
  Cycle:     51 Energy:      -642.043662  Gnorm:      0.303425  CPU:    4.483
  Cycle:     52 Energy:      -642.161285  Gnorm:      0.240771  CPU:    4.570
  Cycle:     53 Energy:      -642.225724  Gnorm:      0.218299  CPU:    4.656
  Cycle:     54 Energy:      -642.312230  Gnorm:      0.276419  CPU:    4.761
  Cycle:     55 Energy:      -642.450765  Gnorm:      0.274851  CPU:    4.872
  Cycle:     56 Energy:      -642.611172  Gnorm:      0.235980  CPU:    4.977
  Cycle:     57 Energy:      -642.734260  Gnorm:      0.269938  CPU:    5.082
  Cycle:     58 Energy:      -642.823933  Gnorm:      0.270625  CPU:    5.167
  Cycle:     59 Energy:      -642.902324  Gnorm:      0.219483  CPU:    5.253
  Cycle:     60 Energy:      -642.948343  Gnorm:      0.194396  CPU:    5.341
  Cycle:     61 Energy:      -642.994950  Gnorm:      0.200009  CPU:    5.446
  Cycle:     62 Energy:      -643.065245  Gnorm:      0.186812  CPU:    5.552
  Cycle:     63 Energy:      -643.139662  Gnorm:      0.207572  CPU:    5.658
  Cycle:     64 Energy:      -643.223553  Gnorm:      0.233153  CPU:    5.774
  Cycle:     65 Energy:      -643.289422  Gnorm:      0.230569  CPU:    5.861
  Cycle:     66 Energy:      -643.389680  Gnorm:      0.302657  CPU:    5.973
  Cycle:     67 Energy:      -643.551011  Gnorm:      0.361643  CPU:    6.079
  Cycle:     68 Energy:      -643.758495  Gnorm:      0.500888  CPU:    6.169
  Cycle:     69 Energy:      -643.976040  Gnorm:      0.414395  CPU:    6.255
  Cycle:     70 Energy:      -644.266334  Gnorm:      0.457526  CPU:    6.366
  Cycle:     71 Energy:      -644.484548  Gnorm:      0.380032  CPU:    6.453
  Cycle:     72 Energy:      -644.695002  Gnorm:      0.385531  CPU:    6.563
  Cycle:     73 Energy:      -644.869157  Gnorm:      0.388332  CPU:    6.651
  Cycle:     74 Energy:      -645.057583  Gnorm:      0.429673  CPU:    6.762
  Cycle:     75 Energy:      -645.326120  Gnorm:      0.335433  CPU:    6.852
  Cycle:     76 Energy:      -645.506190  Gnorm:      0.310823  CPU:    6.922
  Cycle:     77 Energy:      -645.631103  Gnorm:      0.331295  CPU:    6.979
  Cycle:     78 Energy:      -645.773204  Gnorm:      0.305973  CPU:    7.050
  Cycle:     79 Energy:      -645.899878  Gnorm:      0.380647  CPU:    7.126
  Cycle:     80 Energy:      -645.975311  Gnorm:      0.245508  CPU:    7.185
  Cycle:     81 Energy:      -646.070348  Gnorm:      0.256523  CPU:    7.263
  Cycle:     82 Energy:      -646.175644  Gnorm:      0.271841  CPU:    7.335
  Cycle:     83 Energy:      -646.270748  Gnorm:      0.273662  CPU:    7.404
  Cycle:     84 Energy:      -646.403556  Gnorm:      0.319480  CPU:    7.485
  Cycle:     85 Energy:      -646.560368  Gnorm:      0.276575  CPU:    7.543
  Cycle:     86 Energy:      -646.713079  Gnorm:      0.322114  CPU:    7.617
  Cycle:     87 Energy:      -646.832519  Gnorm:      0.366757  CPU:    7.674
  Cycle:     88 Energy:      -647.019883  Gnorm:      0.371358  CPU:    7.745
  Cycle:     89 Energy:      -647.222622  Gnorm:      0.369347  CPU:    7.815
  Cycle:     90 Energy:      -647.346451  Gnorm:      0.328913  CPU:    7.873
  Cycle:     91 Energy:      -647.462420  Gnorm:      0.299493  CPU:    7.947
  Cycle:     92 Energy:      -647.576572  Gnorm:      0.251471  CPU:    8.020
  Cycle:     93 Energy:      -647.674809  Gnorm:      0.267037  CPU:    8.090
  Cycle:     94 Energy:      -647.749246  Gnorm:      0.237367  CPU:    8.148
  Cycle:     95 Energy:      -647.825698  Gnorm:      0.198937  CPU:    8.218
  Cycle:     96 Energy:      -647.908106  Gnorm:      0.200052  CPU:    8.288
  Cycle:     97 Energy:      -647.970223  Gnorm:      0.240698  CPU:    8.346
  Cycle:     98 Energy:      -648.029038  Gnorm:      0.220264  CPU:    8.405
  Cycle:     99 Energy:      -648.092537  Gnorm:      0.233941  CPU:    8.480
  Cycle:    100 Energy:      -648.135511  Gnorm:      0.171684  CPU:    8.538
  Cycle:    101 Energy:      -648.167526  Gnorm:      0.169893  CPU:    8.618
  Cycle:    102 Energy:      -648.198375  Gnorm:      0.134885  CPU:    8.691
  Cycle:    103 Energy:      -648.229442  Gnorm:      0.115249  CPU:    8.763
  Cycle:    104 Energy:      -648.249019  Gnorm:      0.141393  CPU:    8.821
  Cycle:    105 Energy:      -648.271491  Gnorm:      0.117163  CPU:    8.879
  Cycle:    106 Energy:      -648.296334  Gnorm:      0.118883  CPU:    8.951
  Cycle:    107 Energy:      -648.321340  Gnorm:      0.121094  CPU:    9.022
  Cycle:    108 Energy:      -648.343479  Gnorm:      0.124819  CPU:    9.080
  Cycle:    109 Energy:      -648.367406  Gnorm:      0.182921  CPU:    9.151
  Cycle:    110 Energy:      -648.385948  Gnorm:      0.107030  CPU:    9.210
  Cycle:    111 Energy:      -648.401199  Gnorm:      0.103794  CPU:    9.282
  Cycle:    112 Energy:      -648.417546  Gnorm:      0.102217  CPU:    9.352
  Cycle:    113 Energy:      -648.428225  Gnorm:      0.096733  CPU:    9.411
  Cycle:    114 Energy:      -648.438951  Gnorm:      0.089697  CPU:    9.482
  Cycle:    115 Energy:      -648.453796  Gnorm:      0.081174  CPU:    9.553
  Cycle:    116 Energy:      -648.471513  Gnorm:      0.093948  CPU:    9.624
  Cycle:    117 Energy:      -648.487468  Gnorm:      0.112544  CPU:    9.692
  Cycle:    118 Energy:      -648.505287  Gnorm:      0.126798  CPU:    9.751
  Cycle:    119 Energy:      -648.523759  Gnorm:      0.153078  CPU:    9.810
  Cycle:    120 Energy:      -648.539449  Gnorm:      0.112512  CPU:    9.868
  Cycle:    121 Energy:      -648.552916  Gnorm:      0.098278  CPU:    9.927
  Cycle:    122 Energy:      -648.564826  Gnorm:      0.081177  CPU:    9.985
  Cycle:    123 Energy:      -648.576506  Gnorm:      0.074243  CPU:   10.043
  Cycle:    124 Energy:      -648.583392  Gnorm:      0.083614  CPU:   10.101
  Cycle:    125 Energy:      -648.591459  Gnorm:      0.063801  CPU:   10.172
  Cycle:    126 Energy:      -648.598614  Gnorm:      0.070911  CPU:   10.247
  Cycle:    127 Energy:      -648.606333  Gnorm:      0.074200  CPU:   10.305
  Cycle:    128 Energy:      -648.611484  Gnorm:      0.070721  CPU:   10.363
  Cycle:    129 Energy:      -648.619068  Gnorm:      0.078968  CPU:   10.435
  Cycle:    130 Energy:      -648.625119  Gnorm:      0.063351  CPU:   10.493
  Cycle:    131 Energy:      -648.629173  Gnorm:      0.065621  CPU:   10.551
  Cycle:    132 Energy:      -648.635228  Gnorm:      0.057832  CPU:   10.610
  Cycle:    133 Energy:      -648.639800  Gnorm:      0.050541  CPU:   10.667
  Cycle:    134 Energy:      -648.644376  Gnorm:      0.059999  CPU:   10.739
  Cycle:    135 Energy:      -648.647768  Gnorm:      0.051589  CPU:   10.797
  Cycle:    136 Energy:      -648.653095  Gnorm:      0.051374  CPU:   10.855
  Cycle:    137 Energy:      -648.657306  Gnorm:      0.056468  CPU:   10.916
  Cycle:    138 Energy:      -648.661788  Gnorm:      0.062754  CPU:   10.975
  Cycle:    139 Energy:      -648.666108  Gnorm:      0.072977  CPU:   11.037
  Cycle:    140 Energy:      -648.669697  Gnorm:      0.055086  CPU:   11.094
  Cycle:    141 Energy:      -648.672951  Gnorm:      0.046935  CPU:   11.157
  Cycle:    142 Energy:      -648.675835  Gnorm:      0.040533  CPU:   11.215
  Cycle:    143 Energy:      -648.678748  Gnorm:      0.035671  CPU:   11.277
  Cycle:    144 Energy:      -648.680805  Gnorm:      0.042635  CPU:   11.335
  Cycle:    145 Energy:      -648.682634  Gnorm:      0.035365  CPU:   11.397
  Cycle:    146 Energy:      -648.684626  Gnorm:      0.037804  CPU:   11.458
  Cycle:    147 Energy:      -648.686828  Gnorm:      0.037372  CPU:   11.520
  Cycle:    148 Energy:      -648.688272  Gnorm:      0.038509  CPU:   11.578
  Cycle:    149 Energy:      -648.690333  Gnorm:      0.042933  CPU:   11.642
  Cycle:    150 Energy:      -648.692056  Gnorm:      0.035566  CPU:   11.699
  Cycle:    151 Energy:      -648.693229  Gnorm:      0.033068  CPU:   11.757
  Cycle:    152 Energy:      -648.695113  Gnorm:      0.031551  CPU:   11.814
  Cycle:    153 Energy:      -648.696375  Gnorm:      0.030905  CPU:   11.877
  Cycle:    154 Energy:      -648.697618  Gnorm:      0.033232  CPU:   11.936
  Cycle:    155 Energy:      -648.698966  Gnorm:      0.028947  CPU:   12.000
  Cycle:    156 Energy:      -648.700972  Gnorm:      0.029743  CPU:   12.059
  Cycle:    157 Energy:      -648.702628  Gnorm:      0.034124  CPU:   12.122
  Cycle:    158 Energy:      -648.704593  Gnorm:      0.036073  CPU:   12.180
  Cycle:    159 Energy:      -648.707424  Gnorm:      0.075766  CPU:   12.243
  Cycle:    160 Energy:      -648.709809  Gnorm:      0.032370  CPU:   12.301
  Cycle:    161 Energy:      -648.711430  Gnorm:      0.030847  CPU:   12.364
  Cycle:    162 Energy:      -648.712673  Gnorm:      0.027011  CPU:   12.425
  Cycle:    163 Energy:      -648.713929  Gnorm:      0.031222  CPU:   12.487
  Cycle:    164 Energy:      -648.714822  Gnorm:      0.025045  CPU:   12.546
  Cycle:    165 Energy:      -648.716032  Gnorm:      0.024604  CPU:   12.622
  Cycle:    166 Energy:      -648.717078  Gnorm:      0.026289  CPU:   12.680
  Cycle:    167 Energy:      -648.718404  Gnorm:      0.029307  CPU:   12.741
  Cycle:    168 Energy:      -648.719314  Gnorm:      0.031904  CPU:   12.799
  Cycle:    169 Energy:      -648.720694  Gnorm:      0.035479  CPU:   12.873
  Cycle:    170 Energy:      -648.721967  Gnorm:      0.031159  CPU:   12.930
  Cycle:    171 Energy:      -648.722867  Gnorm:      0.029696  CPU:   12.992
  Cycle:    172 Energy:      -648.724313  Gnorm:      0.027184  CPU:   13.049
  Cycle:    173 Energy:      -648.725476  Gnorm:      0.026471  CPU:   13.110
  Cycle:    174 Energy:      -648.726826  Gnorm:      0.028450  CPU:   13.167
  Cycle:    175 Energy:      -648.727851  Gnorm:      0.034523  CPU:   13.229
  Cycle:    176 Energy:      -648.729788  Gnorm:      0.032302  CPU:   13.298
  Cycle:    177 Energy:      -648.731798  Gnorm:      0.042134  CPU:   13.372
  Cycle:    178 Energy:      -648.734882  Gnorm:      0.054852  CPU:   13.443
  Cycle:    179 Energy:      -648.740072  Gnorm:      0.106062  CPU:   13.516
  Cycle:    180 Energy:      -648.745270  Gnorm:      0.055204  CPU:   13.574
  Cycle:    181 Energy:      -648.749663  Gnorm:      0.055092  CPU:   13.635
  Cycle:    182 Energy:      -648.753710  Gnorm:      0.048287  CPU:   13.692
  Cycle:    183 Energy:      -648.758791  Gnorm:      0.061328  CPU:   13.765
  Cycle:    184 Energy:      -648.762342  Gnorm:      0.055809  CPU:   13.823
  Cycle:    185 Energy:      -648.768586  Gnorm:      0.065739  CPU:   13.897
  Cycle:    186 Energy:      -648.776943  Gnorm:      0.087734  CPU:   13.969
  Cycle:    187 Energy:      -648.791476  Gnorm:      0.118976  CPU:   14.045
  Cycle:    188 Energy:      -648.806391  Gnorm:      0.116092  CPU:   14.103
  Cycle:    189 Energy:      -648.826003  Gnorm:      0.139335  CPU:   14.178
  Cycle:    190 Energy:      -648.838032  Gnorm:      0.116109  CPU:   14.236
  Cycle:    191 Energy:      -648.862159  Gnorm:      0.118732  CPU:   14.312
  Cycle:    192 Energy:      -648.887496  Gnorm:      0.104191  CPU:   14.370
  Cycle:    193 Energy:      -648.901451  Gnorm:      0.085862  CPU:   14.434
  Cycle:    194 Energy:      -648.910129  Gnorm:      0.086729  CPU:   14.495
  Cycle:    195 Energy:      -648.917060  Gnorm:      0.074521  CPU:   14.557
  Cycle:    196 Energy:      -648.926466  Gnorm:      0.056457  CPU:   14.628
  Cycle:    197 Energy:      -648.931966  Gnorm:      0.057681  CPU:   14.704
  Cycle:    198 Energy:      -648.936448  Gnorm:      0.064159  CPU:   14.763
  Cycle:    199 Energy:      -648.941493  Gnorm:      0.074740  CPU:   14.838
  Cycle:    200 Energy:      -648.944673  Gnorm:      0.045959  CPU:   14.896
  Cycle:    201 Energy:      -648.946729  Gnorm:      0.037606  CPU:   14.958
  Cycle:    202 Energy:      -648.948703  Gnorm:      0.033808  CPU:   15.016
  Cycle:    203 Energy:      -648.950933  Gnorm:      0.038774  CPU:   15.079
  Cycle:    204 Energy:      -648.952355  Gnorm:      0.032633  CPU:   15.137
  Cycle:    205 Energy:      -648.953636  Gnorm:      0.028434  CPU:   15.200
  Cycle:    206 Energy:      -648.955256  Gnorm:      0.028971  CPU:   15.273
  Cycle:    207 Energy:      -648.956782  Gnorm:      0.025407  CPU:   15.335
  Cycle:    208 Energy:      -648.957724  Gnorm:      0.021350  CPU:   15.394
  Cycle:    209 Energy:      -648.958773  Gnorm:      0.032227  CPU:   15.457
  Cycle:    210 Energy:      -648.959425  Gnorm:      0.020997  CPU:   15.517
  Cycle:    211 Energy:      -648.959838  Gnorm:      0.018698  CPU:   15.585
  Cycle:    212 Energy:      -648.960481  Gnorm:      0.019184  CPU:   15.646
  Cycle:    213 Energy:      -648.961073  Gnorm:      0.019438  CPU:   15.709
  Cycle:    214 Energy:      -648.961478  Gnorm:      0.017801  CPU:   15.769
  Cycle:    215 Energy:      -648.961844  Gnorm:      0.016581  CPU:   15.831
  Cycle:    216 Energy:      -648.962442  Gnorm:      0.017559  CPU:   15.892
  Cycle:    217 Energy:      -648.962930  Gnorm:      0.016397  CPU:   15.957
  Cycle:    218 Energy:      -648.963438  Gnorm:      0.022518  CPU:   16.023
  Cycle:    219 Energy:      -648.963924  Gnorm:      0.022289  CPU:   16.084
  Cycle:    220 Energy:      -648.964283  Gnorm:      0.019376  CPU:   16.142
  Cycle:    221 Energy:      -648.964710  Gnorm:      0.014953  CPU:   16.206
  Cycle:    222 Energy:      -648.965002  Gnorm:      0.014257  CPU:   16.264
  Cycle:    223 Energy:      -648.965383  Gnorm:      0.013049  CPU:   16.327
  Cycle:    224 Energy:      -648.965577  Gnorm:      0.013284  CPU:   16.386
  Cycle:    225 Energy:      -648.965784  Gnorm:      0.012665  CPU:   16.450
  Cycle:    226 Energy:      -648.966108  Gnorm:      0.012350  CPU:   16.510
  Cycle:    227 Energy:      -648.966331  Gnorm:      0.013206  CPU:   16.571
  Cycle:    228 Energy:      -648.966504  Gnorm:      0.012654  CPU:   16.630
  Cycle:    229 Energy:      -648.966725  Gnorm:      0.015725  CPU:   16.693
  Cycle:    230 Energy:      -648.966917  Gnorm:      0.011642  CPU:   16.753
  Cycle:    231 Energy:      -648.967063  Gnorm:      0.011990  CPU:   16.815
  Cycle:    232 Energy:      -648.967243  Gnorm:      0.010953  CPU:   16.873
  Cycle:    233 Energy:      -648.967472  Gnorm:      0.010120  CPU:   16.935
  Cycle:    234 Energy:      -648.967604  Gnorm:      0.010466  CPU:   16.992
  Cycle:    235 Energy:      -648.967721  Gnorm:      0.010102  CPU:   17.054
  Cycle:    236 Energy:      -648.967931  Gnorm:      0.009720  CPU:   17.111
  ** Hessian has required structure
  Cycle:    237 Energy:      -648.970676  Gnorm:      0.003037  CPU:   17.330
  ** Hessian has required structure
  Cycle:    238 Energy:      -648.970973  Gnorm:      0.000123  CPU:   17.406
  ** Hessian has required structure


  **** Optimisation achieved ****


  Final enthalpy =    -648.97097352 eV      
  Final Gnorm    =       0.00003302

  Components of enthalpy : 

--------------------------------------------------------------------------------
  Interatomic potentials     =         227.35059739 eV    
  Monopole - monopole (real) =        -519.25447949 eV    
  Monopole - monopole (recip)=        -487.20373280 eV    
  Monopole - monopole (total)=       -1006.45821228 eV    
  Pressure*volume            =         130.13664137 eV    
--------------------------------------------------------------------------------
  Total lattice enthalpy     =        -648.97097352 eV    
--------------------------------------------------------------------------------
  Total lattice enthalpy     =          -62615.7785 kJ/(mole unit cells)
--------------------------------------------------------------------------------

  Final fractional coordinates of atoms :

--------------------------------------------------------------------------------
   No.  Atomic        x           y          z          Radius
        Label       (Frac)      (Frac)     (Frac)       (Angs) 
--------------------------------------------------------------------------------
     1  Al    c     0.962491    0.530166    0.869549    0.000000
     2  Al    c     0.962181    0.035705    0.899165    0.000000
     3  Al    c     0.464716    0.337001    0.950354    0.000000
     4  Al    c     0.464696    0.529770    0.350814    0.000000
     5  Al    c     0.464622    0.685418    0.671642    0.000000
     6  Al    c     0.464931    0.179879    0.642026    0.000000
     7  Al    c     0.962396    0.878583    0.590837    0.000000
     8  Al    c     0.962417    0.685814    0.190376    0.000000
     9  Mg    c     0.464327    0.029924    0.361145    0.000000
    10  Mg    c     0.967944    0.342637    0.475665    0.000000
    11  Mg    c     0.962785    0.185660    0.180046    0.000000
    12  Mg    c     0.459168    0.872947    0.065527    0.000000
    13  O     c     0.276075    0.111408    0.994811    0.000000
    14  O     c     0.629991    0.706672    0.313825    0.000000
    15  O     c     0.160390    0.601649    0.523976    0.000000
    16  O     c     0.660722    0.000340    0.725809    0.000000
    17  O     c     0.295094    0.848716    0.487703    0.000000
    18  O     c     0.607567    0.239991    0.286432    0.000000
    19  O     c     0.346421    0.355493    0.579133    0.000000
    20  O     c     0.766390    0.215244    0.815383    0.000000
    21  O     c     0.132018    0.366867    0.053488    0.000000
    22  O     c     0.819545    0.975593    0.254759    0.000000
    23  O     c     0.151037    0.104176    0.546380    0.000000
    24  O     c     0.790682    0.723349    0.783095    0.000000
    25  O     c     0.080692    0.860091    0.962057    0.000000
    26  O     c     0.636430    0.492235    0.758097    0.000000
    27  O     c     0.266724    0.613934    0.017214    0.000000
    28  O     c     0.797122    0.508912    0.227369    0.000000
--------------------------------------------------------------------------------

  Final Cartesian lattice vectors (Angstroms) :

        4.633256    0.026916    0.041638
        0.030804   10.091752    1.356427
        0.050843    1.431869    4.652154


  Final cell parameters and derivatives :

--------------------------------------------------------------------------------
       a            4.633521 Angstrom     dE/de1(xx)     0.000038 eV/strain
       b           10.182548 Angstrom     dE/de2(yy)    -0.000137 eV/strain
       c            4.867789 Angstrom     dE/de3(zz)     0.000317 eV/strain
       alpha       65.236712 Degrees      dE/de4(yz)     0.000283 eV/strain
       beta        88.811541 Degrees      dE/de5(xz)     0.000366 eV/strain
       gamma       89.428214 Degrees      dE/de6(xy)     0.000766 eV/strain
--------------------------------------------------------------------------------

  Primitive cell volume =           208.503496 Angs**3

  Density of cell =      4.532272 g/cm**3

  Non-primitive cell volume =           208.503496 Angs**3


  Final internal derivatives :

--------------------------------------------------------------------------------
   No.  Atomic          a             b             c           Radius
        Label          (eV)          (eV)          (eV)        (eV/Angs)
--------------------------------------------------------------------------------
      1 Al    c       0.000000      0.000000      0.000000      0.000000
      2 Al    c      -0.000046     -0.000361     -0.000140      0.000000
      3 Al    c       0.000154      0.001323      0.000086      0.000000
      4 Al    c       0.000005      0.000301     -0.000026      0.000000
      5 Al    c       0.000043     -0.000191      0.000480      0.000000
      6 Al    c      -0.000052      0.000226      0.000160      0.000000
      7 Al    c       0.000067      0.000214      0.000333      0.000000
      8 Al    c       0.000135      0.000087     -0.000290      0.000000
      9 Mg    c       0.000013     -0.000163     -0.000062      0.000000
     10 Mg    c       0.000129      0.000192      0.000525      0.000000
     11 Mg    c       0.000065     -0.000108     -0.000114      0.000000
     12 Mg    c       0.000065     -0.000620     -0.000192      0.000000
     13 O     c      -0.000067      0.000308      0.000095      0.000000
     14 O     c       0.000098      0.000323      0.000064      0.000000
     15 O     c       0.000330     -0.000432     -0.000835      0.000000
     16 O     c       0.000015      0.000087     -0.000064      0.000000
     17 O     c      -0.000157     -0.000193     -0.000121      0.000000
     18 O     c      -0.000008      0.000052      0.000006      0.000000
     19 O     c      -0.000118      0.000133     -0.000182      0.000000
     20 O     c      -0.000133     -0.000353     -0.000118      0.000000
     21 O     c       0.000097     -0.000262      0.000083      0.000000
     22 O     c      -0.000022     -0.000017     -0.000028      0.000000
     23 O     c       0.000053     -0.000172     -0.000079      0.000000
     24 O     c      -0.000157      0.000560     -0.000175      0.000000
     25 O     c      -0.000018      0.000008     -0.000039      0.000000
     26 O     c      -0.000112     -0.000396     -0.000111      0.000000
     27 O     c       0.000130      0.000290      0.000205      0.000000
     28 O     c      -0.000547      0.000458      0.001006      0.000000
--------------------------------------------------------------------------------
  Maximum abs         0.000547      0.001323      0.001006      0.000000
--------------------------------------------------------------------------------


  Time to end of optimisation =      17.4941 seconds


  Peak dynamic memory used =       2.03 MB 


  Timing analysis for GULP :

--------------------------------------------------------------------------------
  Task / Subroutine                                          Time (Seconds)
--------------------------------------------------------------------------------
  Calculation of reciprocal space energy and derivatives          0.7862
  Calculation of real space energy and derivatives               16.5722
  Calculation and manipulation of Hessian matrix                  0.0569
  Global summation overhead                                       0.0020
--------------------------------------------------------------------------------
  Total CPU time                                                 17.4942
--------------------------------------------------------------------------------


  Job Finished at 16:50.39 11th June       2024                               

