********************************************************************************
*                       GENERAL UTILITY LATTICE PROGRAM                        *
*                                 Julian Gale                                  *
*                       Curtin Institute for Computation                       *
*                    School of Molecular and Life Sciences                     *
*                    Curtin University, Western Australia                      *
********************************************************************************
* Version = 6.0.0 * Last modified =  12th July 2021                            *
********************************************************************************
*  optimise     - perform optimisation run                                     *
*  conp         - constant pressure calculation                                *
*  nosymmetry   - turn off symmetry after initial structure generation         *
*  conjugate    - use conjugate gradients minimiser                            *
********************************************************************************

  Job Started  at 16:50.16 11th June       2024                               

  Number of CPUs =     1


  Total number of configurations input =      1

********************************************************************************
*  Input for Configuration =   1                                               *
********************************************************************************

  Formula = Al8Mg4O16                                                   

  Number of irreducible atoms/shells =      28


  Total number atoms/shells =      28

  Dimensionality = 3               :  Bulk   



  Cartesian lattice vectors (Angstroms) :

        2.832232   -1.635190    0.000000
        0.000000    3.270380    0.000000
        0.000000    0.000000   21.752777

  Cell parameters (Angstroms/Degrees):

  a =       3.2704    alpha =  90.0000
  b =       3.2704    beta  =  90.0000
  c =      21.7528    gamma = 120.0000

  Initial cell volume =         201.484576 Angs**3

  Temperature of configuration =   0.00     K 

  Pressure of configuration =       100.000 GPa 

  Fractional coordinates of asymmetric unit :

--------------------------------------------------------------------------------
   No.  Atomic       x           y          z         Charge      Occupancy
        Label      (Frac)      (Frac)     (Frac)        (e)         (Frac)  
--------------------------------------------------------------------------------
      1 Al    c    0.533798    0.067595    0.180796     3.00000    1.000000    
      2 Al    c    0.000000 *  0.533798 *  0.180796 *   3.00000    1.000000    
      3 Al    c    0.533798 *  0.533798 *  0.180796 *   3.00000    1.000000    
      4 Al    c    0.355865 *  0.711730 *  0.425091 *   3.00000    1.000000    
      5 Al    c    0.711730 *  0.355865 *  0.425091 *   3.00000    1.000000    
      6 Al    c    0.533798 *  0.067595 *  0.566326 *   3.00000    1.000000    
      7 Al    c    0.000000 *  0.533798 *  0.566326 *   3.00000    1.000000    
      8 Al    c    0.533798 *  0.533798 *  0.566326 *   3.00000    1.000000    
      9 Mg    c    0.355865 *  0.711730 *  0.246340 *   2.00000    1.000000    
     10 Mg    c    0.711730 *  0.355865 *  0.246340 *   2.00000    1.000000    
     11 Mg    c    0.355865 *  0.711730 *  0.001808 *   2.00000    1.000000    
     12 Mg    c    0.711730 *  0.355865 *  0.001808 *   2.00000    1.000000    
     13 O     c    0.533798 *  0.067595 *  0.741225 *  -2.00000    1.000000    
     14 O     c    0.000000 *  0.533798 *  0.741225 *  -2.00000    1.000000    
     15 O     c    0.533798 *  0.533798 *  0.741225 *  -2.00000    1.000000    
     16 O     c    0.533798 *  0.067595 *  0.667998 *  -2.00000    1.000000    
     17 O     c    0.000000 *  0.533798 *  0.667998 *  -2.00000    1.000000    
     18 O     c    0.533798 *  0.533798 *  0.667998 *  -2.00000    1.000000    
     19 O     c    0.912830 *  0.154765 *  0.660187 *  -2.00000    1.000000    
     20 O     c    0.912830 *  0.758065 *  0.660187 *  -2.00000    1.000000    
     21 O     c    0.241935 *  0.154765 *  0.660187 *  -2.00000    1.000000    
     22 O     c    0.154765 *  0.912830 *  0.660187 *  -2.00000    1.000000    
     23 O     c    0.154765 *  0.241935 *  0.660187 *  -2.00000    1.000000    
     24 O     c    0.758065 *  0.912830 *  0.660187 *  -2.00000    1.000000    
     25 O     c    0.000000 *  0.000000 *  0.448993 *  -2.00000    1.000000    
     26 O     c    0.355865 *  0.711730 *  0.898606 *  -2.00000    1.000000    
     27 O     c    0.711730 *  0.355865 *  0.898606 *  -2.00000    1.000000    
     28 O     c    0.000000 *  0.000000 *  0.151798 *  -2.00000    1.000000    
--------------------------------------------------------------------------------



********************************************************************************
*  General input information                                                   *
********************************************************************************

  Species output for all configurations : 

--------------------------------------------------------------------------------
  Species    Type    Atomic    Atomic    Charge       Radii (Angs)     Library
                     Number     Mass       (e)     Cova   Ionic  VDW   Symbol
--------------------------------------------------------------------------------
    Mg       Core       12      24.31   2.000000   1.100  0.000  1.640          
    Al       Core       13      26.98   3.000000   1.350  0.000  2.050          
    O        Core        8      16.00  -2.000000   0.730  0.000  1.360          
--------------------------------------------------------------------------------


  Lattice summation method               =    Ewald          (3-D)
                                         =    Parry          (2-D)
                                         =    Saunders et al (1-D)
  Accuracy factor for lattice sums       =   12.000


  Analytic derivatives to be used

  Time limit = Infinity

  Maximum range for interatomic potentials =    100000.000000 Angstroms

  General interatomic potentials :

--------------------------------------------------------------------------------
Atom  Types   Potential      Parameter       Value         Units   Cutoffs(Ang)
  1     2                                                            Min /  Max 
--------------------------------------------------------------------------------
O    c Mg   c Lennard       Lennard-Jones A  1.5000000    eV*Ang^m  0.000  6.000
                            Lennard-Jones B  0.0000000    eV*Ang^n  
                            Exponent m        12          None
                            Exponent n         6          None
--------------------------------------------------------------------------------
O    c Al   c Lennard       Lennard-Jones A  1.5000000    eV*Ang^m  0.000  6.000
                            Lennard-Jones B  0.0000000    eV*Ang^n  
                            Exponent m        12          None
                            Exponent n         6          None
--------------------------------------------------------------------------------
O    c O    c Lennard       Lennard-Jones A  1.5000000    eV*Ang^m  0.000  6.000
                            Lennard-Jones B  0.0000000    eV*Ang^n  
                            Exponent m        12          None
                            Exponent n         6          None
--------------------------------------------------------------------------------
Mg   c Mg   c Lennard       Lennard-Jones A  1.5000000    eV*Ang^m  0.000  6.000
                            Lennard-Jones B  0.0000000    eV*Ang^n  
                            Exponent m        12          None
                            Exponent n         6          None
--------------------------------------------------------------------------------
Mg   c Al   c Lennard       Lennard-Jones A  1.5000000    eV*Ang^m  0.000  6.000
                            Lennard-Jones B  0.0000000    eV*Ang^n  
                            Exponent m        12          None
                            Exponent n         6          None
--------------------------------------------------------------------------------
Al   c Al   c Lennard       Lennard-Jones A  1.5000000    eV*Ang^m  0.000  6.000
                            Lennard-Jones B  0.0000000    eV*Ang^n  
                            Exponent m        12          None
                            Exponent n         6          None
--------------------------------------------------------------------------------
O    c Mg   c Buckingham    Buckingham A     1428.5000    eV        0.000  7.000
                            Buckingham rho  0.29450000    Ang       
                            Buckingham C     0.0000000    eV*Ang^6  
--------------------------------------------------------------------------------
O    c Al   c Buckingham    Buckingham A     1114.9000    eV        0.000  7.000
                            Buckingham rho  0.31180000    Ang       
                            Buckingham C     0.0000000    eV*Ang^6  
--------------------------------------------------------------------------------
O    c O    c Buckingham    Buckingham A     2023.8000    eV        0.000  7.000
                            Buckingham rho  0.26740000    Ang       
                            Buckingham C     0.0000000    eV*Ang^6  
--------------------------------------------------------------------------------

********************************************************************************
*  Output for configuration   1                                                *
********************************************************************************


  Components of enthalpy : 

--------------------------------------------------------------------------------
  Interatomic potentials     =        9428.17977304 eV    
  Monopole - monopole (real) =        2188.50149995 eV    
  Monopole - monopole (recip)=       10400.83057522 eV    
  Monopole - monopole (total)=       12589.33207517 eV    
  Pressure*volume            =         125.75581032 eV    
--------------------------------------------------------------------------------
  Total lattice enthalpy     =       22143.26765852 eV    
--------------------------------------------------------------------------------
  Total lattice enthalpy     =         2136486.8382 kJ/(mole unit cells)
--------------------------------------------------------------------------------


  Number of variables =       87

  Maximum number of calculations  =           850
  Maximum Hessian update interval =            10
  Maximum step size               =   1.000000000
  Maximum parameter tolerance     =   0.000010000
  Maximum function  tolerance     =   0.000010000
  Maximum gradient  tolerance     =   0.001000000
  Maximum gradient  component     =   0.010000000

  Cell parameters to be optimised using strains

  Conjugate gradient optimiser to be used

  Lower half triangular hessian to be used

  Minimiser to switch to RFO
  When gradient norm is less than     0.010000

  Start of bulk optimisation :

  Cycle:      0 Energy:     22143.267659  Gnorm:  11358.033180  CPU:    0.050
  Cycle:      1 Energy:     15382.458468  Gnorm:    888.608697  CPU:    0.213
  Cycle:      2 Energy:     11048.513131  Gnorm:   1400.498280  CPU:    0.373
  Cycle:      3 Energy:      8613.726406  Gnorm:    418.791343  CPU:    0.526
  Cycle:      4 Energy:      6280.468907  Gnorm:    584.932247  CPU:    0.688
  Cycle:      5 Energy:      5470.691348  Gnorm:    293.523439  CPU:    0.838
  Cycle:      6 Energy:      3502.081398  Gnorm:    573.200218  CPU:    0.995
  Cycle:      7 Energy:      3230.926423  Gnorm:    182.443655  CPU:    1.082
  Cycle:      8 Energy:      2706.458755  Gnorm:    150.148206  CPU:    1.237
  Cycle:      9 Energy:      2135.333313  Gnorm:    134.209773  CPU:    1.389
  Cycle:     10 Energy:      1850.406362  Gnorm:    238.221892  CPU:    1.511
  Cycle:     11 Energy:      1642.107952  Gnorm:    241.490702  CPU:    1.618
  Cycle:     12 Energy:      1432.498643  Gnorm:    110.593108  CPU:    1.774
  Cycle:     13 Energy:      1294.388919  Gnorm:     96.010259  CPU:    1.925
  Cycle:     14 Energy:      1246.154796  Gnorm:     90.595011  CPU:    2.076
  Cycle:     15 Energy:      1222.835942  Gnorm:     88.245236  CPU:    2.226
  Cycle:     16 Energy:      1211.435026  Gnorm:     87.125562  CPU:    2.362
  Cycle:     17 Energy:      1205.793638  Gnorm:     86.576003  CPU:    2.483
  Cycle:     18 Energy:      1202.987106  Gnorm:     86.303341  CPU:    2.589
  Cycle:     19 Energy:      1201.587294  Gnorm:     86.167486  CPU:    2.698
  Cycle:     20 Energy:      1200.887142  Gnorm:     86.099564  CPU:    2.800
  Cycle:     21 Energy:      1200.537827  Gnorm:     86.065684  CPU:    2.903
  Cycle:     22 Energy:      1200.363222  Gnorm:     86.048751  CPU:    2.992
  Cycle:     23 Energy:      1200.275932  Gnorm:     86.040286  CPU:    3.082
  Cycle:     24 Energy:      1200.232291  Gnorm:     86.036054  CPU:    3.170
  Cycle:     25 Energy:      1200.210471  Gnorm:     86.033938  CPU:    3.260
  Cycle:     26 Energy:      1200.199561  Gnorm:     86.032880  CPU:    3.314
  Cycle:     27 Energy:      1200.194106  Gnorm:     86.032351  CPU:    3.368
  Cycle:     28 Energy:      1200.191379  Gnorm:     86.032087  CPU:    3.422
  Cycle:     29 Energy:      1200.190015  Gnorm:     86.031955  CPU:    3.476
  Cycle:     30 Energy:      1200.189333  Gnorm:     86.031888  CPU:    3.534
  Cycle:     31 Energy:      1200.188993  Gnorm:     86.031855  CPU:    3.589
  Cycle:     32 Energy:      1200.188822  Gnorm:     86.031839  CPU:    3.647
  Cycle:     33 Energy:      1200.188737  Gnorm:     86.031831  CPU:    3.700
  Cycle:     34 Energy:      1200.188694  Gnorm:     86.031826  CPU:    3.759
  Cycle:     35 Energy:      1200.188673  Gnorm:     86.031824  CPU:    3.813
  Cycle:     36 Energy:      1200.188662  Gnorm:     86.031823  CPU:    3.873
  Cycle:     37 Energy:      1200.188657  Gnorm:     86.031823  CPU:    3.927
  Cycle:     38 Energy:      1200.188654  Gnorm:     86.031823  CPU:    3.986
  Cycle:     39 Energy:      1200.188653  Gnorm:     86.031822  CPU:    4.042
  Cycle:     40 Energy:      1200.188652  Gnorm:     86.031822  CPU:    4.100
  Cycle:     41 Energy:      1200.188652  Gnorm:     86.031822  CPU:    4.154
  Cycle:     42 Energy:      1200.188652  Gnorm:     86.031822  CPU:    4.212
  Cycle:     43 Energy:      1200.188652  Gnorm:     86.031822  CPU:    4.265
  Cycle:     44 Energy:      1200.188652  Gnorm:     86.031822  CPU:    4.323
  Cycle:     45 Energy:      1200.188652  Gnorm:     86.031822  CPU:    4.377
  Cycle:     46 Energy:      1200.188652  Gnorm:     86.031822  CPU:    4.435
  Cycle:     47 Energy:      1200.188652  Gnorm:     86.031822  CPU:    4.488
  Cycle:     48 Energy:      1200.188652  Gnorm:     86.031822  CPU:    4.546
  Cycle:     49 Energy:      1200.188652  Gnorm:     86.031822  CPU:    4.599
  Cycle:     50 Energy:      1200.188652  Gnorm:     86.031822  CPU:    4.657
  Cycle:     51 Energy:      1200.188652  Gnorm:     86.031822  CPU:    4.719
  Cycle:     52 Energy:      1200.188652  Gnorm:     86.031822  CPU:    4.779
  Cycle:     53 Energy:      1200.188652  Gnorm:     86.031822  CPU:    4.833
  Cycle:     54 Energy:      1200.188652  Gnorm:     86.031822  CPU:    4.892
  Cycle:     55 Energy:      1200.188652  Gnorm:     86.031822  CPU:    4.947


  **** Too many failed attempts to optimise ****

  Final enthalpy =    1200.18865165 eV      
  Final Gnorm    =      86.03182228

  Components of enthalpy : 

--------------------------------------------------------------------------------
  Interatomic potentials     =         343.15802756 eV    
  Monopole - monopole (real) =          46.46936053 eV    
  Monopole - monopole (recip)=         653.44907496 eV    
  Monopole - monopole (total)=         699.91843549 eV    
  Pressure*volume            =         157.11218860 eV    
--------------------------------------------------------------------------------
  Total lattice enthalpy     =        1200.18865165 eV    
--------------------------------------------------------------------------------
  Total lattice enthalpy     =          115799.8583 kJ/(mole unit cells)
--------------------------------------------------------------------------------

  Final fractional coordinates of atoms :

--------------------------------------------------------------------------------
   No.  Atomic        x           y          z          Radius
        Label       (Frac)      (Frac)     (Frac)       (Angs) 
--------------------------------------------------------------------------------
     1  Al    c     0.533798    0.067595    0.180796    0.000000
     2  Al    c     0.001751    0.533531    0.086328    0.000000
     3  Al    c     0.532049    0.535254    0.088112    0.000000
     4  Al    c     0.356178    0.711353    0.560024    0.000000
     5  Al    c     0.710129    0.357778    0.560877    0.000000
     6  Al    c     0.534562    0.066349    0.637953    0.000000
     7  Al    c     0.000109    0.533016    0.648434    0.000000
     8  Al    c     0.532378    0.534401    0.630952    0.000000
     9  Mg    c     0.356051    0.711257    0.321011    0.000000
    10  Mg    c     0.711647    0.356332    0.323600    0.000000
    11  Mg    c     0.356047    0.711611    0.975922    0.000000
    12  Mg    c     0.711570    0.355949    0.975913    0.000000
    13  O     c     0.533608    0.065350    0.805765    0.000000
    14  O     c     0.002305    0.533920    0.815627    0.000000
    15  O     c     0.531772    0.535782    0.848495    0.000000
    16  O     c     0.534474    0.066677    0.722044    0.000000
    17  O     c     0.999781    0.534016    0.719749    0.000000
    18  O     c     0.532727    0.534503    0.703408    0.000000
    19  O     c     0.862488    0.178099    0.489330    0.000000
    20  O     c     0.898245    0.745471    0.490242    0.000000
    21  O     c     0.323664    0.131130    0.487708    0.000000
    22  O     c     0.176239    0.863069    0.584785    0.000000
    23  O     c     0.132470    0.319693    0.592976    0.000000
    24  O     c     0.744472    0.897765    0.580359    0.000000
    25  O     c     0.999956    0.999976    0.337570    0.000000
    26  O     c     0.356055    0.711556    0.925372    0.000000
    27  O     c     0.711522    0.356060    0.925484    0.000000
    28  O     c     0.999984    0.000037    0.172372    0.000000
--------------------------------------------------------------------------------

  Final Cartesian lattice vectors (Angstroms) :

        3.386414   -1.953423    0.000864
        0.000870    3.908353   -0.001066
        0.002542   -0.007087   19.016654


  Final cell parameters and derivatives :

--------------------------------------------------------------------------------
       a            3.909433 Angstrom     dE/de1(xx) -1738.244968 eV/strain
       b            3.908353 Angstrom     dE/de2(yy) -1695.960843 eV/strain
       c           19.016656 Angstrom     dE/de3(zz)  1464.899524 eV/strain
       alpha       90.036972 Degrees      dE/de4(yz)    -3.462744 eV/strain
       beta        89.970039 Degrees      dE/de5(xz)    -3.880673 eV/strain
       gamma      119.965370 Degrees      dE/de6(xy)     8.543502 eV/strain
--------------------------------------------------------------------------------

  Primitive cell volume =           251.723421 Angs**3

  Density of cell =      3.754099 g/cm**3

  Non-primitive cell volume =           251.723421 Angs**3


  Final internal derivatives :

--------------------------------------------------------------------------------
   No.  Atomic          a             b             c           Radius
        Label          (eV)          (eV)          (eV)        (eV/Angs)
--------------------------------------------------------------------------------
      1 Al    c       0.000000      0.000000      0.000000      0.000000
      2 Al    c     -33.610079      9.601187   1605.626393      0.000000
      3 Al    c      33.369598    -23.317767   1554.107881      0.000000
      4 Al    c     -31.038731     54.756041    683.305784      0.000000
      5 Al    c     -24.990273      5.898394    520.563327      0.000000
      6 Al    c      -0.617552     56.193617  -2476.876395      0.000000
      7 Al    c     -46.261279    -11.165586  -2493.531395      0.000000
      8 Al    c      41.129749    -47.904502  -2040.447595      0.000000
      9 Mg    c      -4.405735      6.462052  -1639.043861      0.000000
     10 Mg    c       3.286743     -7.247918  -1677.147865      0.000000
     11 Mg    c      -6.199767     -2.583176    210.410661      0.000000
     12 Mg    c       5.490936      4.707410    194.381636      0.000000
     13 O     c       9.680532     37.134977  -1049.036003      0.000000
     14 O     c     -40.850551     -7.408538  -1020.485038      0.000000
     15 O     c      29.137053    -26.946892  -1542.976869      0.000000
     16 O     c       3.465213     44.171026   2035.022427      0.000000
     17 O     c     -44.907088     -5.272867   1543.339318      0.000000
     18 O     c      38.154048    -39.114331   1628.286067      0.000000
     19 O     c      82.463987   -108.703086    966.845118      0.000000
     20 O     c      32.972226    145.132495    948.280042      0.000000
     21 O     c    -120.551226    -36.710292    923.448668      0.000000
     22 O     c     -15.518078      8.284212    -20.274950      0.000000
     23 O     c     -17.678293    -92.795430    300.031227      0.000000
     24 O     c     103.868814     25.175647    129.787950      0.000000
     25 O     c       1.160146      0.407682   1755.768888      0.000000
     26 O     c      19.215435    -20.329281   -338.379503      0.000000
     27 O     c     -17.608545     18.992474   -325.915088      0.000000
     28 O     c       0.326540      1.752373    497.041750      0.000000
--------------------------------------------------------------------------------
  Maximum abs       120.551226    145.132495   2493.531395      0.000000
--------------------------------------------------------------------------------


  Time to end of optimisation =       5.0073 seconds


  Peak dynamic memory used =       1.90 MB 


  Timing analysis for GULP :

--------------------------------------------------------------------------------
  Task / Subroutine                                          Time (Seconds)
--------------------------------------------------------------------------------
  Calculation of reciprocal space energy and derivatives          0.2100
  Calculation of real space energy and derivatives                4.7691
  Global summation overhead                                       0.0005
--------------------------------------------------------------------------------
  Total CPU time                                                  5.0073
--------------------------------------------------------------------------------


  Job Finished at 16:50.21 11th June       2024                               

