********************************************************************************
*                       GENERAL UTILITY LATTICE PROGRAM                        *
*                                 Julian Gale                                  *
*                       Curtin Institute for Computation                       *
*                    School of Molecular and Life Sciences                     *
*                    Curtin University, Western Australia                      *
********************************************************************************
* Version = 6.0.0 * Last modified =  12th July 2021                            *
********************************************************************************
*  optimise     - perform optimisation run                                     *
*  conp         - constant pressure calculation                                *
*  nosymmetry   - turn off symmetry after initial structure generation         *
*  conjugate    - use conjugate gradients minimiser                            *
********************************************************************************

  Job Started  at 16:45.11 11th June       2024                               

  Number of CPUs =     1


  Total number of configurations input =      1

********************************************************************************
*  Input for Configuration =   1                                               *
********************************************************************************

  Formula = Al8Mg4O16                                                   

  Number of irreducible atoms/shells =      28


  Total number atoms/shells =      28

  Dimensionality = 3               :  Bulk   



  Cartesian lattice vectors (Angstroms) :

        5.424780    0.000000    0.000000
        0.000000    5.747200    0.000000
        0.000000    0.000000    6.462542

  Cell parameters (Angstroms/Degrees):

  a =       5.4248    alpha =  90.0000
  b =       5.7472    beta  =  90.0000
  c =       6.4625    gamma =  90.0000

  Initial cell volume =         201.484576 Angs**3

  Temperature of configuration =   0.00     K 

  Pressure of configuration =       100.000 GPa 

  Fractional coordinates of asymmetric unit :

--------------------------------------------------------------------------------
   No.  Atomic       x           y          z         Charge      Occupancy
        Label      (Frac)      (Frac)     (Frac)        (e)         (Frac)  
--------------------------------------------------------------------------------
      1 Al    c    0.000000    0.584587    0.024794     3.00000    1.000000    
      2 Al    c    0.584587 *  0.000000 *  0.024794 *   3.00000    1.000000    
      3 Al    c    0.000000 *  0.000000 *  0.018501 *   3.00000    1.000000    
      4 Al    c    0.584587 *  0.584587 *  0.018501 *   3.00000    1.000000    
      5 Al    c    0.016054 *  0.000000 *  0.170186 *   3.00000    1.000000    
      6 Al    c    0.153120 *  0.000000 *  0.170186 *   3.00000    1.000000    
      7 Al    c    0.431467 *  0.584587 *  0.170186 *   3.00000    1.000000    
      8 Al    c    0.737708 *  0.584587 *  0.170186 *   3.00000    1.000000    
      9 Mg    c    0.000000 *  0.000000 *  0.481849 *   2.00000    1.000000    
     10 Mg    c    0.584587 *  0.584587 *  0.481849 *   2.00000    1.000000    
     11 Mg    c    0.000000 *  0.584587 *  0.066915 *   2.00000    1.000000    
     12 Mg    c    0.584587 *  0.000000 *  0.066915 *   2.00000    1.000000    
     13 O     c    0.416865 *  0.648187 *  0.378705 *  -2.00000    1.000000    
     14 O     c    0.752309 *  0.520988 *  0.378705 *  -2.00000    1.000000    
     15 O     c    0.416865 *  0.520988 *  0.378705 *  -2.00000    1.000000    
     16 O     c    0.752309 *  0.648187 *  0.378705 *  -2.00000    1.000000    
     17 O     c    0.001452 *  0.063599 *  0.378705 *  -2.00000    1.000000    
     18 O     c    0.167722 *  0.105575 *  0.378705 *  -2.00000    1.000000    
     19 O     c    0.001452 *  0.105575 *  0.378705 *  -2.00000    1.000000    
     20 O     c    0.167722 *  0.063599 *  0.378705 *  -2.00000    1.000000    
     21 O     c    0.878187 *  0.690073 *  0.674988 *  -2.00000    1.000000    
     22 O     c    0.290988 *  0.479102 *  0.674988 *  -2.00000    1.000000    
     23 O     c    0.878187 *  0.479102 *  0.674988 *  -2.00000    1.000000    
     24 O     c    0.290988 *  0.690073 *  0.674988 *  -2.00000    1.000000    
     25 O     c    0.293600 *  0.105485 *  0.674988 *  -2.00000    1.000000    
     26 O     c    0.875575 *  0.063689 *  0.674988 *  -2.00000    1.000000    
     27 O     c    0.293600 *  0.063689 *  0.674988 *  -2.00000    1.000000    
     28 O     c    0.875575 *  0.105485 *  0.674988 *  -2.00000    1.000000    
--------------------------------------------------------------------------------



********************************************************************************
*  General input information                                                   *
********************************************************************************

  Species output for all configurations : 

--------------------------------------------------------------------------------
  Species    Type    Atomic    Atomic    Charge       Radii (Angs)     Library
                     Number     Mass       (e)     Cova   Ionic  VDW   Symbol
--------------------------------------------------------------------------------
    Mg       Core       12      24.31   2.000000   1.100  0.000  1.640          
    Al       Core       13      26.98   3.000000   1.350  0.000  2.050          
    O        Core        8      16.00  -2.000000   0.730  0.000  1.360          
--------------------------------------------------------------------------------


  Lattice summation method               =    Ewald          (3-D)
                                         =    Parry          (2-D)
                                         =    Saunders et al (1-D)
  Accuracy factor for lattice sums       =   12.000


  Analytic derivatives to be used

  Time limit = Infinity

  Maximum range for interatomic potentials =    100000.000000 Angstroms

  General interatomic potentials :

--------------------------------------------------------------------------------
Atom  Types   Potential      Parameter       Value         Units   Cutoffs(Ang)
  1     2                                                            Min /  Max 
--------------------------------------------------------------------------------
O    c Mg   c Lennard       Lennard-Jones A  1.5000000    eV*Ang^m  0.000  6.000
                            Lennard-Jones B  0.0000000    eV*Ang^n  
                            Exponent m        12          None
                            Exponent n         6          None
--------------------------------------------------------------------------------
O    c Al   c Lennard       Lennard-Jones A  1.5000000    eV*Ang^m  0.000  6.000
                            Lennard-Jones B  0.0000000    eV*Ang^n  
                            Exponent m        12          None
                            Exponent n         6          None
--------------------------------------------------------------------------------
O    c O    c Lennard       Lennard-Jones A  1.5000000    eV*Ang^m  0.000  6.000
                            Lennard-Jones B  0.0000000    eV*Ang^n  
                            Exponent m        12          None
                            Exponent n         6          None
--------------------------------------------------------------------------------
Mg   c Mg   c Lennard       Lennard-Jones A  1.5000000    eV*Ang^m  0.000  6.000
                            Lennard-Jones B  0.0000000    eV*Ang^n  
                            Exponent m        12          None
                            Exponent n         6          None
--------------------------------------------------------------------------------
Mg   c Al   c Lennard       Lennard-Jones A  1.5000000    eV*Ang^m  0.000  6.000
                            Lennard-Jones B  0.0000000    eV*Ang^n  
                            Exponent m        12          None
                            Exponent n         6          None
--------------------------------------------------------------------------------
Al   c Al   c Lennard       Lennard-Jones A  1.5000000    eV*Ang^m  0.000  6.000
                            Lennard-Jones B  0.0000000    eV*Ang^n  
                            Exponent m        12          None
                            Exponent n         6          None
--------------------------------------------------------------------------------
O    c Mg   c Buckingham    Buckingham A     1428.5000    eV        0.000  7.000
                            Buckingham rho  0.29450000    Ang       
                            Buckingham C     0.0000000    eV*Ang^6  
--------------------------------------------------------------------------------
O    c Al   c Buckingham    Buckingham A     1114.9000    eV        0.000  7.000
                            Buckingham rho  0.31180000    Ang       
                            Buckingham C     0.0000000    eV*Ang^6  
--------------------------------------------------------------------------------
O    c O    c Buckingham    Buckingham A     2023.8000    eV        0.000  7.000
                            Buckingham rho  0.26740000    Ang       
                            Buckingham C     0.0000000    eV*Ang^6  
--------------------------------------------------------------------------------

********************************************************************************
*  Output for configuration   1                                                *
********************************************************************************


  Components of enthalpy : 

--------------------------------------------------------------------------------
  Interatomic potentials     =   176624329.33661103 eV    
  Monopole - monopole (real) =        1839.50452533 eV    
  Monopole - monopole (recip)=        -127.22377737 eV    
  Monopole - monopole (total)=        1712.28074796 eV    
  Pressure*volume            =         125.75581031 eV    
--------------------------------------------------------------------------------
  Total lattice enthalpy     =   176626167.37316933 eV    
--------------------------------------------------------------------------------
  Total lattice enthalpy     =     17041725173.2659 kJ/(mole unit cells)
--------------------------------------------------------------------------------


  Number of variables =       87

  Maximum number of calculations  =           850
  Maximum Hessian update interval =            10
  Maximum step size               =   1.000000000
  Maximum parameter tolerance     =   0.000010000
  Maximum function  tolerance     =   0.000010000
  Maximum gradient  tolerance     =   0.001000000
  Maximum gradient  component     =   0.010000000

  Cell parameters to be optimised using strains

  Conjugate gradient optimiser to be used

  Lower half triangular hessian to be used

  Minimiser to switch to RFO
  When gradient norm is less than     0.010000

  Start of bulk optimisation :

  Cycle:      0 Energy: 176626167.373169  Gnorm:**************  CPU:    0.045
  Cycle:      1 Energy:     98596.784996  Gnorm: 208897.109325  CPU:    0.138
  Cycle:      2 Energy:      1821.256479  Gnorm:    353.693703  CPU:    0.231
  Cycle:      3 Energy:       682.927076  Gnorm:     57.729749  CPU:    0.330
  Cycle:      4 Energy:      -101.116960  Gnorm:     29.167458  CPU:    0.417
  Cycle:      5 Energy:      -329.204915  Gnorm:     11.715142  CPU:    0.504
  Cycle:      6 Energy:      -402.046710  Gnorm:      9.230259  CPU:    0.569
  Cycle:      7 Energy:      -435.255675  Gnorm:      6.678558  CPU:    0.642
  Cycle:      8 Energy:      -475.086728  Gnorm:      5.102780  CPU:    0.694
  Cycle:      9 Energy:      -510.301239  Gnorm:      4.694030  CPU:    0.752
  Cycle:     10 Energy:      -527.237435  Gnorm:      3.850320  CPU:    0.797
  Cycle:     11 Energy:      -545.145064  Gnorm:      3.261159  CPU:    0.852
  Cycle:     12 Energy:      -561.697725  Gnorm:      2.880382  CPU:    0.944
  Cycle:     13 Energy:      -575.073522  Gnorm:      2.594092  CPU:    1.055
  Cycle:     14 Energy:      -587.345939  Gnorm:      2.319478  CPU:    1.186
  Cycle:     15 Energy:      -596.255034  Gnorm:      2.085761  CPU:    1.381
  Cycle:     16 Energy:      -603.573008  Gnorm:      1.651961  CPU:    1.534
  Cycle:     17 Energy:      -608.933639  Gnorm:      1.354695  CPU:    1.727
  Cycle:     18 Energy:      -613.312063  Gnorm:      1.322055  CPU:    1.862
  Cycle:     19 Energy:      -616.011912  Gnorm:      1.215906  CPU:    2.023
  Cycle:     20 Energy:      -617.625519  Gnorm:      0.906196  CPU:    2.180
  Cycle:     21 Energy:      -619.199306  Gnorm:      0.791371  CPU:    2.322
  Cycle:     22 Energy:      -621.114589  Gnorm:      1.039697  CPU:    2.512
  Cycle:     23 Energy:      -623.846058  Gnorm:      1.200147  CPU:    2.696
  Cycle:     24 Energy:      -625.941671  Gnorm:      1.072025  CPU:    2.814
  Cycle:     25 Energy:      -627.877662  Gnorm:      0.903173  CPU:    3.019
  Cycle:     26 Energy:      -629.115478  Gnorm:      0.746634  CPU:    3.130
  Cycle:     27 Energy:      -630.125470  Gnorm:      0.715179  CPU:    3.270
  Cycle:     28 Energy:      -630.897413  Gnorm:      0.685354  CPU:    3.370
  Cycle:     29 Energy:      -631.914764  Gnorm:      0.659667  CPU:    3.468
  Cycle:     30 Energy:      -632.436019  Gnorm:      0.577414  CPU:    3.548
  Cycle:     31 Energy:      -632.941273  Gnorm:      0.428103  CPU:    3.645
  Cycle:     32 Energy:      -633.453615  Gnorm:      0.388016  CPU:    3.755
  Cycle:     33 Energy:      -633.796779  Gnorm:      0.436724  CPU:    3.835
  Cycle:     34 Energy:      -634.047091  Gnorm:      0.337722  CPU:    3.920
  Cycle:     35 Energy:      -634.271202  Gnorm:      0.278939  CPU:    4.017
  Cycle:     36 Energy:      -634.455395  Gnorm:      0.289278  CPU:    4.135
  Cycle:     37 Energy:      -634.603096  Gnorm:      0.287259  CPU:    4.269
  Cycle:     38 Energy:      -634.767154  Gnorm:      0.292628  CPU:    4.499
  Cycle:     39 Energy:      -634.954995  Gnorm:      0.266612  CPU:    4.654
  Cycle:     40 Energy:      -635.054750  Gnorm:      0.256038  CPU:    4.748
  Cycle:     41 Energy:      -635.166860  Gnorm:      0.214012  CPU:    4.900
  Cycle:     42 Energy:      -635.250244  Gnorm:      0.165233  CPU:    5.083
  Cycle:     43 Energy:      -635.378114  Gnorm:      0.265877  CPU:    5.308
  Cycle:     44 Energy:      -635.681232  Gnorm:      0.433559  CPU:    5.522
  Cycle:     45 Energy:      -636.099730  Gnorm:      0.544590  CPU:    5.644
  Cycle:     46 Energy:      -636.619519  Gnorm:      0.509409  CPU:    5.776
  Cycle:     47 Energy:      -637.352455  Gnorm:      0.568796  CPU:    5.971
  Cycle:     48 Energy:      -637.767843  Gnorm:      0.539814  CPU:    6.064
  Cycle:     49 Energy:      -638.281394  Gnorm:      0.586745  CPU:    6.165
  Cycle:     50 Energy:      -638.585998  Gnorm:      0.391875  CPU:    6.247
  Cycle:     51 Energy:      -639.158833  Gnorm:      0.375042  CPU:    6.392
  Cycle:     52 Energy:      -639.484553  Gnorm:      0.356569  CPU:    6.522
  Cycle:     53 Energy:      -640.090476  Gnorm:      0.465886  CPU:    6.649
  Cycle:     54 Energy:      -640.570448  Gnorm:      0.507969  CPU:    6.779
  Cycle:     55 Energy:      -640.878748  Gnorm:      0.439443  CPU:    6.881
  Cycle:     56 Energy:      -641.214978  Gnorm:      0.359788  CPU:    6.999
  Cycle:     57 Energy:      -641.483402  Gnorm:      0.351184  CPU:    7.096
  Cycle:     58 Energy:      -641.675907  Gnorm:      0.295977  CPU:    7.176
  Cycle:     59 Energy:      -641.802870  Gnorm:      0.203681  CPU:    7.286
  Cycle:     60 Energy:      -641.858895  Gnorm:      0.210626  CPU:    7.379
  Cycle:     61 Energy:      -641.928892  Gnorm:      0.162336  CPU:    7.480
  Cycle:     62 Energy:      -641.993649  Gnorm:      0.126453  CPU:    7.580
  Cycle:     63 Energy:      -642.030932  Gnorm:      0.104014  CPU:    7.688
  Cycle:     64 Energy:      -642.060118  Gnorm:      0.130501  CPU:    7.765
  Cycle:     65 Energy:      -642.085451  Gnorm:      0.101179  CPU:    7.845
  Cycle:     66 Energy:      -642.113466  Gnorm:      0.108129  CPU:    7.944
  Cycle:     67 Energy:      -642.130662  Gnorm:      0.111242  CPU:    8.024
  Cycle:     68 Energy:      -642.153798  Gnorm:      0.093725  CPU:    8.118
  Cycle:     69 Energy:      -642.184375  Gnorm:      0.115893  CPU:    8.214
  Cycle:     70 Energy:      -642.196113  Gnorm:      0.068213  CPU:    8.291
  Cycle:     71 Energy:      -642.206656  Gnorm:      0.059547  CPU:    8.388
  Cycle:     72 Energy:      -642.215171  Gnorm:      0.074304  CPU:    8.466
  Cycle:     73 Energy:      -642.222273  Gnorm:      0.060497  CPU:    8.541
  Cycle:     74 Energy:      -642.234572  Gnorm:      0.069713  CPU:    8.635
  Cycle:     75 Energy:      -642.249618  Gnorm:      0.101050  CPU:    8.728
  Cycle:     76 Energy:      -642.266958  Gnorm:      0.109363  CPU:    8.810
  Cycle:     77 Energy:      -642.292743  Gnorm:      0.120928  CPU:    8.887
  Cycle:     78 Energy:      -642.324721  Gnorm:      0.131489  CPU:    8.980
  Cycle:     79 Energy:      -642.363008  Gnorm:      0.134361  CPU:    9.074
  Cycle:     80 Energy:      -642.396002  Gnorm:      0.137519  CPU:    9.150
  Cycle:     81 Energy:      -642.430785  Gnorm:      0.155160  CPU:    9.225
  Cycle:     82 Energy:      -642.470411  Gnorm:      0.123012  CPU:    9.305
  Cycle:     83 Energy:      -642.535376  Gnorm:      0.164925  CPU:    9.406
  Cycle:     84 Energy:      -642.593122  Gnorm:      0.187474  CPU:    9.485
  Cycle:     85 Energy:      -642.667751  Gnorm:      0.217181  CPU:    9.566
  Cycle:     86 Energy:      -642.846843  Gnorm:      0.214360  CPU:    9.659
  Cycle:     87 Energy:      -642.954035  Gnorm:      0.230376  CPU:    9.742
  Cycle:     88 Energy:      -643.026188  Gnorm:      0.211716  CPU:    9.823
  Cycle:     89 Energy:      -643.101915  Gnorm:      0.167342  CPU:    9.930
  Cycle:     90 Energy:      -643.137883  Gnorm:      0.148214  CPU:   10.006
  Cycle:     91 Energy:      -643.173278  Gnorm:      0.141849  CPU:   10.107
  Cycle:     92 Energy:      -643.219048  Gnorm:      0.125411  CPU:   10.203
  Cycle:     93 Energy:      -643.257050  Gnorm:      0.104270  CPU:   10.300
  Cycle:     94 Energy:      -643.269574  Gnorm:      0.069841  CPU:   10.377
  Cycle:     95 Energy:      -643.283903  Gnorm:      0.065444  CPU:   10.476
  Cycle:     96 Energy:      -643.294386  Gnorm:      0.060656  CPU:   10.553
  Cycle:     97 Energy:      -643.299638  Gnorm:      0.064269  CPU:   10.636
  Cycle:     98 Energy:      -643.308194  Gnorm:      0.046236  CPU:   10.730
  Cycle:     99 Energy:      -643.313783  Gnorm:      0.043418  CPU:   10.810
  Cycle:    100 Energy:      -643.316744  Gnorm:      0.031044  CPU:   10.887
  Cycle:    101 Energy:      -643.320496  Gnorm:      0.033899  CPU:   10.965
  Cycle:    102 Energy:      -643.322681  Gnorm:      0.041596  CPU:   11.048
  Cycle:    103 Energy:      -643.325688  Gnorm:      0.037138  CPU:   11.131
  Cycle:    104 Energy:      -643.329420  Gnorm:      0.038808  CPU:   11.207
  Cycle:    105 Energy:      -643.332220  Gnorm:      0.043822  CPU:   11.286
  Cycle:    106 Energy:      -643.337501  Gnorm:      0.043598  CPU:   11.388
  Cycle:    107 Energy:      -643.342101  Gnorm:      0.044934  CPU:   11.473
  Cycle:    108 Energy:      -643.344945  Gnorm:      0.041073  CPU:   11.554
  Cycle:    109 Energy:      -643.348255  Gnorm:      0.040518  CPU:   11.634
  Cycle:    110 Energy:      -643.350488  Gnorm:      0.032919  CPU:   11.715
  Cycle:    111 Energy:      -643.352137  Gnorm:      0.033527  CPU:   11.792
  Cycle:    112 Energy:      -643.354476  Gnorm:      0.027951  CPU:   11.873
  Cycle:    113 Energy:      -643.356870  Gnorm:      0.023583  CPU:   11.951
  Cycle:    114 Energy:      -643.358421  Gnorm:      0.023025  CPU:   12.030
  Cycle:    115 Energy:      -643.359432  Gnorm:      0.024704  CPU:   12.106
  Cycle:    116 Energy:      -643.360591  Gnorm:      0.020669  CPU:   12.182
  Cycle:    117 Energy:      -643.362006  Gnorm:      0.028395  CPU:   12.262
  Cycle:    118 Energy:      -643.363068  Gnorm:      0.025090  CPU:   12.343
  Cycle:    119 Energy:      -643.364590  Gnorm:      0.032139  CPU:   12.420
  Cycle:    120 Energy:      -643.365534  Gnorm:      0.021865  CPU:   12.504
  Cycle:    121 Energy:      -643.366419  Gnorm:      0.023448  CPU:   12.580
  Cycle:    122 Energy:      -643.367938  Gnorm:      0.021822  CPU:   12.677
  Cycle:    123 Energy:      -643.369007  Gnorm:      0.027132  CPU:   12.752
  Cycle:    124 Energy:      -643.370590  Gnorm:      0.026091  CPU:   12.851
  Cycle:    125 Energy:      -643.373328  Gnorm:      0.031251  CPU:   12.944
  Cycle:    126 Energy:      -643.377841  Gnorm:      0.048767  CPU:   13.042
  Cycle:    127 Energy:      -643.382898  Gnorm:      0.059990  CPU:   13.118
  Cycle:    128 Energy:      -643.390133  Gnorm:      0.071548  CPU:   13.195
  Cycle:    129 Energy:      -643.406723  Gnorm:      0.113519  CPU:   13.298
  Cycle:    130 Energy:      -643.417646  Gnorm:      0.078413  CPU:   13.382
  Cycle:    131 Energy:      -643.428981  Gnorm:      0.059824  CPU:   13.459
  Cycle:    132 Energy:      -643.440245  Gnorm:      0.083376  CPU:   13.554
  Cycle:    133 Energy:      -643.451456  Gnorm:      0.069658  CPU:   13.635
  Cycle:    134 Energy:      -643.461920  Gnorm:      0.060506  CPU:   13.710
  Cycle:    135 Energy:      -643.471188  Gnorm:      0.068402  CPU:   13.807
  Cycle:    136 Energy:      -643.480694  Gnorm:      0.066472  CPU:   13.883
  Cycle:    137 Energy:      -643.492765  Gnorm:      0.095644  CPU:   13.985
  Cycle:    138 Energy:      -643.510405  Gnorm:      0.098249  CPU:   14.078
  Cycle:    139 Energy:      -643.524546  Gnorm:      0.078470  CPU:   14.159
  Cycle:    140 Energy:      -643.530747  Gnorm:      0.067306  CPU:   14.239
  Cycle:    141 Energy:      -643.543663  Gnorm:      0.070265  CPU:   14.340
  Cycle:    142 Energy:      -643.552402  Gnorm:      0.064777  CPU:   14.417
  Cycle:    143 Energy:      -643.559187  Gnorm:      0.057943  CPU:   14.513
  Cycle:    144 Energy:      -643.567212  Gnorm:      0.044979  CPU:   14.608
  Cycle:    145 Energy:      -643.572481  Gnorm:      0.041354  CPU:   14.705
  Cycle:    146 Energy:      -643.578218  Gnorm:      0.033087  CPU:   14.803
  Cycle:    147 Energy:      -643.582307  Gnorm:      0.035931  CPU:   14.909
  Cycle:    148 Energy:      -643.584782  Gnorm:      0.049113  CPU:   14.988
  Cycle:    149 Energy:      -643.590082  Gnorm:      0.044713  CPU:   15.085
  Cycle:    150 Energy:      -643.592533  Gnorm:      0.031065  CPU:   15.163
  Cycle:    151 Energy:      -643.593810  Gnorm:      0.028338  CPU:   15.242
  Cycle:    152 Energy:      -643.595409  Gnorm:      0.021619  CPU:   15.323
  Cycle:    153 Energy:      -643.596881  Gnorm:      0.023965  CPU:   15.404
  Cycle:    154 Energy:      -643.597735  Gnorm:      0.021809  CPU:   15.487
  Cycle:    155 Energy:      -643.598855  Gnorm:      0.019121  CPU:   15.565
  Cycle:    156 Energy:      -643.600162  Gnorm:      0.020213  CPU:   15.659
  Cycle:    157 Energy:      -643.601217  Gnorm:      0.020393  CPU:   15.744
  Cycle:    158 Energy:      -643.601920  Gnorm:      0.021529  CPU:   15.823
  Cycle:    159 Energy:      -643.602557  Gnorm:      0.014904  CPU:   15.904
  Cycle:    160 Energy:      -643.602956  Gnorm:      0.015657  CPU:   15.979
  Cycle:    161 Energy:      -643.603346  Gnorm:      0.016092  CPU:   16.054
  Cycle:    162 Energy:      -643.603916  Gnorm:      0.012971  CPU:   16.134
  Cycle:    163 Energy:      -643.604354  Gnorm:      0.011985  CPU:   16.214
  Cycle:    164 Energy:      -643.604666  Gnorm:      0.012449  CPU:   16.290
  Cycle:    165 Energy:      -643.604887  Gnorm:      0.009866  CPU:   16.370
  ** Hessian has required structure
  Cycle:    166 Energy:      -643.607472  Gnorm:      0.003261  CPU:   16.615
  ** Hessian has required structure
  Cycle:    167 Energy:      -643.607812  Gnorm:      0.000513  CPU:   16.711
  ** Hessian has required structure


  **** Optimisation achieved ****


  Final enthalpy =    -643.60781377 eV      
  Final Gnorm    =       0.00007197

  Components of enthalpy : 

--------------------------------------------------------------------------------
  Interatomic potentials     =         222.11080111 eV    
  Monopole - monopole (real) =        -506.06271698 eV    
  Monopole - monopole (recip)=        -488.61614777 eV    
  Monopole - monopole (total)=        -994.67886475 eV    
  Pressure*volume            =         128.96024987 eV    
--------------------------------------------------------------------------------
  Total lattice enthalpy     =        -643.60781377 eV    
--------------------------------------------------------------------------------
  Total lattice enthalpy     =          -62098.3156 kJ/(mole unit cells)
--------------------------------------------------------------------------------

  Final fractional coordinates of atoms :

--------------------------------------------------------------------------------
   No.  Atomic        x           y          z          Radius
        Label       (Frac)      (Frac)     (Frac)       (Angs) 
--------------------------------------------------------------------------------
     1  Al    c     0.000000    0.584587    0.024794    0.000000
     2  Al    c     0.570611    0.970429    0.598617    0.000000
     3  Al    c     0.642707    0.754601    0.908058    0.000000
     4  Al    c     0.462266    0.309477    0.119443    0.000000
     5  Al    c     0.888514    0.210238    0.912355    0.000000
     6  Al    c     0.275452    0.947379    0.033485    0.000000
     7  Al    c     0.036672    0.752250    0.536121    0.000000
     8  Al    c     0.460219    0.626841    0.340385    0.000000
     9  Mg    c     0.262531    0.163639    0.540878    0.000000
    10  Mg    c     0.883685    0.385466    0.505958    0.000000
    11  Mg    c     0.436804    0.465692    0.736272    0.000000
    12  Mg    c     0.835862    0.024044    0.250693    0.000000
    13  O     c     0.366472    0.734370    0.084517    0.000000
    14  O     c     0.064345    0.581229    0.333404    0.000000
    15  O     c     0.399157    0.394036    0.407689    0.000000
    16  O     c     0.951316    0.816119    0.071524    0.000000
    17  O     c     0.746116    0.824517    0.453225    0.000000
    18  O     c     0.163394    0.146375    0.076826    0.000000
    19  O     c     0.762481    0.257643    0.192878    0.000000
    20  O     c     0.410969    0.005567    0.339736    0.000000
    21  O     c     0.827798    0.611361    0.721297    0.000000
    22  O     c     0.100605    0.410384    0.878894    0.000000
    23  O     c     0.614000    0.532396    0.083150    0.000000
    24  O     c     0.388451    0.697084    0.651067    0.000000
    25  O     c     0.551547    0.260927    0.796877    0.000000
    26  O     c     0.654059    0.980926    0.909135    0.000000
    27  O     c     0.214109    0.940372    0.706873    0.000000
    28  O     c     0.890379    0.144760    0.590708    0.000000
--------------------------------------------------------------------------------

  Final Cartesian lattice vectors (Angstroms) :

        4.865967   -0.776125   -0.135919
       -0.825260    7.905033   -0.287702
       -0.161829   -0.323926    5.480973


  Final cell parameters and derivatives :

--------------------------------------------------------------------------------
       a            4.929349 Angstrom     dE/de1(xx)    -0.000287 eV/strain
       b            7.953199 Angstrom     dE/de2(yy)    -0.001111 eV/strain
       c            5.492921 Angstrom     dE/de3(zz)    -0.000771 eV/strain
       alpha       95.258711 Degrees      dE/de4(yz)    -0.001658 eV/strain
       beta        92.711727 Degrees      dE/de5(xz)     0.001248 eV/strain
       gamma      104.947213 Degrees      dE/de6(xy)     0.002059 eV/strain
--------------------------------------------------------------------------------

  Primitive cell volume =           206.618694 Angs**3

  Density of cell =      4.573616 g/cm**3

  Non-primitive cell volume =           206.618694 Angs**3


  Final internal derivatives :

--------------------------------------------------------------------------------
   No.  Atomic          a             b             c           Radius
        Label          (eV)          (eV)          (eV)        (eV/Angs)
--------------------------------------------------------------------------------
      1 Al    c       0.000000      0.000000      0.000000      0.000000
      2 Al    c      -0.000746      0.001457     -0.000511      0.000000
      3 Al    c       0.001056      0.000434      0.000227      0.000000
      4 Al    c      -0.000418     -0.000539      0.001256      0.000000
      5 Al    c      -0.000283      0.000486      0.000295      0.000000
      6 Al    c       0.000125     -0.000520      0.000390      0.000000
      7 Al    c       0.000140     -0.000105     -0.000753      0.000000
      8 Al    c      -0.000499     -0.000669      0.000027      0.000000
      9 Mg    c       0.000476     -0.000197     -0.000748      0.000000
     10 Mg    c      -0.000439      0.000970     -0.001768      0.000000
     11 Mg    c      -0.000094     -0.000538     -0.000187      0.000000
     12 Mg    c       0.000449     -0.000010     -0.000586      0.000000
     13 O     c       0.000176      0.000488      0.000210      0.000000
     14 O     c      -0.000115      0.000567     -0.000077      0.000000
     15 O     c       0.000380     -0.000408      0.000028      0.000000
     16 O     c      -0.000205      0.001584     -0.000543      0.000000
     17 O     c       0.000558      0.000261     -0.000244      0.000000
     18 O     c      -0.000067      0.000458     -0.000310      0.000000
     19 O     c       0.000250     -0.000708     -0.000595      0.000000
     20 O     c      -0.000135     -0.000004      0.001170      0.000000
     21 O     c      -0.000309     -0.000284      0.000666      0.000000
     22 O     c       0.001098     -0.000858      0.000897      0.000000
     23 O     c       0.000222     -0.001057     -0.000618      0.000000
     24 O     c       0.000340     -0.000358      0.000736      0.000000
     25 O     c       0.000347     -0.000383      0.000187      0.000000
     26 O     c       0.000505      0.000629     -0.000186      0.000000
     27 O     c      -0.000030     -0.000420     -0.000636      0.000000
     28 O     c      -0.000098      0.000095      0.000393      0.000000
--------------------------------------------------------------------------------
  Maximum abs         0.001098      0.001584      0.001768      0.000000
--------------------------------------------------------------------------------


  Time to end of optimisation =      16.8249 seconds


  Peak dynamic memory used =       2.03 MB 


  Timing analysis for GULP :

--------------------------------------------------------------------------------
  Task / Subroutine                                          Time (Seconds)
--------------------------------------------------------------------------------
  Calculation of reciprocal space energy and derivatives          0.6127
  Calculation of real space energy and derivatives               16.0686
  Calculation and manipulation of Hessian matrix                  0.0611
  Global summation overhead                                       0.0023
--------------------------------------------------------------------------------
  Total CPU time                                                 16.8249
--------------------------------------------------------------------------------


  Job Finished at 16:45.28 11th June       2024                               

