********************************************************************************
*                       GENERAL UTILITY LATTICE PROGRAM                        *
*                                 Julian Gale                                  *
*                       Curtin Institute for Computation                       *
*                    School of Molecular and Life Sciences                     *
*                    Curtin University, Western Australia                      *
********************************************************************************
* Version = 6.0.0 * Last modified =  12th July 2021                            *
********************************************************************************
*  optimise     - perform optimisation run                                     *
*  conp         - constant pressure calculation                                *
*  nosymmetry   - turn off symmetry after initial structure generation         *
*  conjugate    - use conjugate gradients minimiser                            *
********************************************************************************

  Job Started  at 16:46.50 11th June       2024                               

  Number of CPUs =     1


  Total number of configurations input =      1

********************************************************************************
*  Input for Configuration =   1                                               *
********************************************************************************

  Formula = Al8Mg4O16                                                   

  Number of irreducible atoms/shells =      28


  Total number atoms/shells =      28

  Dimensionality = 3               :  Bulk   



  Cartesian lattice vectors (Angstroms) :

        5.862470    0.000000    0.000000
        0.000000    5.862470    0.000000
        0.000000    0.000000    5.862470

  Cell parameters (Angstroms/Degrees):

  a =       5.8625    alpha =  90.0000
  b =       5.8625    beta  =  90.0000
  c =       5.8625    gamma =  90.0000

  Initial cell volume =         201.484576 Angs**3

  Temperature of configuration =   0.00     K 

  Pressure of configuration =       100.000 GPa 

  Fractional coordinates of asymmetric unit :

--------------------------------------------------------------------------------
   No.  Atomic       x           y          z         Charge      Occupancy
        Label      (Frac)      (Frac)     (Frac)        (e)         (Frac)  
--------------------------------------------------------------------------------
      1 Al    c    0.000000    0.000000    0.000000     3.00000    1.000000    
      2 Al    c    0.000000 *  0.624549 *  0.624549 *   3.00000    1.000000    
      3 Al    c    0.624549 *  0.000000 *  0.624549 *   3.00000    1.000000    
      4 Al    c    0.624549 *  0.624549 *  0.000000 *   3.00000    1.000000    
      5 Al    c    0.624549 *  0.624549 *  0.624549 *   3.00000    1.000000    
      6 Al    c    0.624549 *  0.000000 *  0.000000 *   3.00000    1.000000    
      7 Al    c    0.000000 *  0.624549 *  0.000000 *   3.00000    1.000000    
      8 Al    c    0.000000 *  0.000000 *  0.624549 *   3.00000    1.000000    
      9 Mg    c    0.312274 *  0.312274 *  0.312274 *   2.00000    1.000000    
     10 Mg    c    0.312274 *  0.936823 *  0.936823 *   2.00000    1.000000    
     11 Mg    c    0.936823 *  0.312274 *  0.936823 *   2.00000    1.000000    
     12 Mg    c    0.936823 *  0.936823 *  0.312274 *   2.00000    1.000000    
     13 O     c    0.860089 *  0.860089 *  0.860089 *  -2.00000    1.000000    
     14 O     c    0.389009 *  0.389009 *  0.860089 *  -2.00000    1.000000    
     15 O     c    0.389009 *  0.860089 *  0.389009 *  -2.00000    1.000000    
     16 O     c    0.860089 *  0.389009 *  0.389009 *  -2.00000    1.000000    
     17 O     c    0.860089 *  0.235540 *  0.235540 *  -2.00000    1.000000    
     18 O     c    0.389009 *  0.013558 *  0.235540 *  -2.00000    1.000000    
     19 O     c    0.389009 *  0.235540 *  0.013558 *  -2.00000    1.000000    
     20 O     c    0.860089 *  0.013558 *  0.013558 *  -2.00000    1.000000    
     21 O     c    0.235540 *  0.860089 *  0.235540 *  -2.00000    1.000000    
     22 O     c    0.013558 *  0.389009 *  0.235540 *  -2.00000    1.000000    
     23 O     c    0.013558 *  0.860089 *  0.013558 *  -2.00000    1.000000    
     24 O     c    0.235540 *  0.389009 *  0.013558 *  -2.00000    1.000000    
     25 O     c    0.235540 *  0.235540 *  0.860089 *  -2.00000    1.000000    
     26 O     c    0.013558 *  0.013558 *  0.860089 *  -2.00000    1.000000    
     27 O     c    0.013558 *  0.235540 *  0.389009 *  -2.00000    1.000000    
     28 O     c    0.235540 *  0.013558 *  0.389009 *  -2.00000    1.000000    
--------------------------------------------------------------------------------



********************************************************************************
*  General input information                                                   *
********************************************************************************

  Species output for all configurations : 

--------------------------------------------------------------------------------
  Species    Type    Atomic    Atomic    Charge       Radii (Angs)     Library
                     Number     Mass       (e)     Cova   Ionic  VDW   Symbol
--------------------------------------------------------------------------------
    Mg       Core       12      24.31   2.000000   1.100  0.000  1.640          
    Al       Core       13      26.98   3.000000   1.350  0.000  2.050          
    O        Core        8      16.00  -2.000000   0.730  0.000  1.360          
--------------------------------------------------------------------------------


  Lattice summation method               =    Ewald          (3-D)
                                         =    Parry          (2-D)
                                         =    Saunders et al (1-D)
  Accuracy factor for lattice sums       =   12.000


  Analytic derivatives to be used

  Time limit = Infinity

  Maximum range for interatomic potentials =    100000.000000 Angstroms

  General interatomic potentials :

--------------------------------------------------------------------------------
Atom  Types   Potential      Parameter       Value         Units   Cutoffs(Ang)
  1     2                                                            Min /  Max 
--------------------------------------------------------------------------------
O    c Mg   c Lennard       Lennard-Jones A  1.5000000    eV*Ang^m  0.000  6.000
                            Lennard-Jones B  0.0000000    eV*Ang^n  
                            Exponent m        12          None
                            Exponent n         6          None
--------------------------------------------------------------------------------
O    c Al   c Lennard       Lennard-Jones A  1.5000000    eV*Ang^m  0.000  6.000
                            Lennard-Jones B  0.0000000    eV*Ang^n  
                            Exponent m        12          None
                            Exponent n         6          None
--------------------------------------------------------------------------------
O    c O    c Lennard       Lennard-Jones A  1.5000000    eV*Ang^m  0.000  6.000
                            Lennard-Jones B  0.0000000    eV*Ang^n  
                            Exponent m        12          None
                            Exponent n         6          None
--------------------------------------------------------------------------------
Mg   c Mg   c Lennard       Lennard-Jones A  1.5000000    eV*Ang^m  0.000  6.000
                            Lennard-Jones B  0.0000000    eV*Ang^n  
                            Exponent m        12          None
                            Exponent n         6          None
--------------------------------------------------------------------------------
Mg   c Al   c Lennard       Lennard-Jones A  1.5000000    eV*Ang^m  0.000  6.000
                            Lennard-Jones B  0.0000000    eV*Ang^n  
                            Exponent m        12          None
                            Exponent n         6          None
--------------------------------------------------------------------------------
Al   c Al   c Lennard       Lennard-Jones A  1.5000000    eV*Ang^m  0.000  6.000
                            Lennard-Jones B  0.0000000    eV*Ang^n  
                            Exponent m        12          None
                            Exponent n         6          None
--------------------------------------------------------------------------------
O    c Mg   c Buckingham    Buckingham A     1428.5000    eV        0.000  7.000
                            Buckingham rho  0.29450000    Ang       
                            Buckingham C     0.0000000    eV*Ang^6  
--------------------------------------------------------------------------------
O    c Al   c Buckingham    Buckingham A     1114.9000    eV        0.000  7.000
                            Buckingham rho  0.31180000    Ang       
                            Buckingham C     0.0000000    eV*Ang^6  
--------------------------------------------------------------------------------
O    c O    c Buckingham    Buckingham A     2023.8000    eV        0.000  7.000
                            Buckingham rho  0.26740000    Ang       
                            Buckingham C     0.0000000    eV*Ang^6  
--------------------------------------------------------------------------------

********************************************************************************
*  Output for configuration   1                                                *
********************************************************************************


  Components of enthalpy : 

--------------------------------------------------------------------------------
  Interatomic potentials     =         877.57703888 eV    
  Monopole - monopole (real) =         -34.72823057 eV    
  Monopole - monopole (recip)=        -412.47854881 eV    
  Monopole - monopole (total)=        -447.20677938 eV    
  Pressure*volume            =         125.75581035 eV    
--------------------------------------------------------------------------------
  Total lattice enthalpy     =         556.12606985 eV    
--------------------------------------------------------------------------------
  Total lattice enthalpy     =           53657.6646 kJ/(mole unit cells)
--------------------------------------------------------------------------------


  Number of variables =       87

  Maximum number of calculations  =           850
  Maximum Hessian update interval =            10
  Maximum step size               =   1.000000000
  Maximum parameter tolerance     =   0.000010000
  Maximum function  tolerance     =   0.000010000
  Maximum gradient  tolerance     =   0.001000000
  Maximum gradient  component     =   0.010000000

  Cell parameters to be optimised using strains

  Conjugate gradient optimiser to be used

  Lower half triangular hessian to be used

  Minimiser to switch to RFO
  When gradient norm is less than     0.010000

  Start of bulk optimisation :

  Cycle:      0 Energy:       556.126070  Gnorm:     87.547663  CPU:    0.043
  Cycle:      1 Energy:      -116.944285  Gnorm:     29.351403  CPU:    0.117
  Cycle:      2 Energy:      -276.762352  Gnorm:     14.566173  CPU:    0.188
  Cycle:      3 Energy:      -433.645958  Gnorm:      6.408994  CPU:    0.259
  Cycle:      4 Energy:      -458.758884  Gnorm:      4.176623  CPU:    0.315
  Cycle:      5 Energy:      -480.635461  Gnorm:      3.791004  CPU:    0.372
  Cycle:      6 Energy:      -492.576895  Gnorm:      3.503469  CPU:    0.426
  Cycle:      7 Energy:      -503.101287  Gnorm:      3.449645  CPU:    0.482
  Cycle:      8 Energy:      -519.761399  Gnorm:      2.714948  CPU:    0.536
  Cycle:      9 Energy:      -536.670513  Gnorm:      5.120545  CPU:    0.592
  Cycle:     10 Energy:      -549.533066  Gnorm:      2.360971  CPU:    0.674
  Cycle:     11 Energy:      -563.823750  Gnorm:      2.775301  CPU:    0.820
  Cycle:     12 Energy:      -571.732618  Gnorm:      2.509122  CPU:    0.957
  Cycle:     13 Energy:      -581.247852  Gnorm:      2.297992  CPU:    1.122
  Cycle:     14 Energy:      -589.339147  Gnorm:      1.942810  CPU:    1.303
  Cycle:     15 Energy:      -594.755473  Gnorm:      4.394067  CPU:    1.449
  Cycle:     16 Energy:      -596.538638  Gnorm:      3.811988  CPU:    1.630
  Cycle:     17 Energy:      -607.606935  Gnorm:      0.832743  CPU:    1.790
  Cycle:     18 Energy:      -608.503437  Gnorm:      0.547217  CPU:    1.961
  Cycle:     19 Energy:      -609.033059  Gnorm:      0.370663  CPU:    2.127
  Cycle:     20 Energy:      -609.238542  Gnorm:      0.253930  CPU:    2.267
  Cycle:     21 Energy:      -609.446605  Gnorm:      0.345039  CPU:    2.564
  Cycle:     22 Energy:      -609.760226  Gnorm:      0.302387  CPU:    2.822
  Cycle:     23 Energy:      -610.003756  Gnorm:      0.242227  CPU:    2.984
  Cycle:     24 Energy:      -610.304033  Gnorm:      0.418936  CPU:    3.174
  Cycle:     25 Energy:      -610.726778  Gnorm:      0.353284  CPU:    3.377
  Cycle:     26 Energy:      -611.093850  Gnorm:      0.385233  CPU:    3.522
  Cycle:     27 Energy:      -611.460336  Gnorm:      0.363355  CPU:    3.664
  Cycle:     28 Energy:      -611.852889  Gnorm:      0.368732  CPU:    3.841
  Cycle:     29 Energy:      -612.277581  Gnorm:      0.322767  CPU:    4.019
  Cycle:     30 Energy:      -612.465236  Gnorm:      0.167064  CPU:    4.155
  Cycle:     31 Energy:      -612.524398  Gnorm:      0.134857  CPU:    4.327
  Cycle:     32 Energy:      -612.606594  Gnorm:      0.194228  CPU:    4.503
  Cycle:     33 Energy:      -612.778546  Gnorm:      0.320561  CPU:    4.675
  Cycle:     34 Energy:      -613.281477  Gnorm:      0.472979  CPU:    4.852
  Cycle:     35 Energy:      -613.785287  Gnorm:      0.442666  CPU:    4.995
  Cycle:     36 Energy:      -614.243901  Gnorm:      0.435331  CPU:    5.135
  Cycle:     37 Energy:      -615.239770  Gnorm:      0.517449  CPU:    5.321
  Cycle:     38 Energy:      -615.927510  Gnorm:      0.548482  CPU:    5.461
  Cycle:     39 Energy:      -616.547380  Gnorm:      0.562467  CPU:    5.603
  Cycle:     40 Energy:      -617.084597  Gnorm:      0.470896  CPU:    5.749
  Cycle:     41 Energy:      -617.516918  Gnorm:      0.325463  CPU:    5.931
  Cycle:     42 Energy:      -617.794584  Gnorm:      0.198150  CPU:    6.105
  Cycle:     43 Energy:      -617.897236  Gnorm:      0.178713  CPU:    6.291
  Cycle:     44 Energy:      -618.008895  Gnorm:      0.190271  CPU:    6.466
  Cycle:     45 Energy:      -618.087077  Gnorm:      0.181455  CPU:    6.609
  Cycle:     46 Energy:      -618.179484  Gnorm:      0.145186  CPU:    6.788
  Cycle:     47 Energy:      -618.238954  Gnorm:      0.212109  CPU:    6.959
  Cycle:     48 Energy:      -618.430473  Gnorm:      0.247207  CPU:    7.136
  Cycle:     49 Energy:      -618.557284  Gnorm:      0.212028  CPU:    7.314
  Cycle:     50 Energy:      -618.612384  Gnorm:      0.158370  CPU:    7.448
  Cycle:     51 Energy:      -618.679360  Gnorm:      0.149258  CPU:    7.630
  Cycle:     52 Energy:      -618.715609  Gnorm:      0.094456  CPU:    7.772
  Cycle:     53 Energy:      -618.751906  Gnorm:      0.136274  CPU:    7.952
  Cycle:     54 Energy:      -618.808655  Gnorm:      0.127304  CPU:    8.127
  Cycle:     55 Energy:      -618.838632  Gnorm:      0.081457  CPU:    8.266
  Cycle:     56 Energy:      -618.854387  Gnorm:      0.053288  CPU:    8.468
  Cycle:     57 Energy:      -618.864867  Gnorm:      0.077480  CPU:    8.650
  Cycle:     58 Energy:      -618.874301  Gnorm:      0.052568  CPU:    8.791
  Cycle:     59 Energy:      -618.878684  Gnorm:      0.036317  CPU:    8.933
  Cycle:     60 Energy:      -618.880096  Gnorm:      0.026258  CPU:    9.082
  Cycle:     61 Energy:      -618.882316  Gnorm:      0.031423  CPU:    9.219
  Cycle:     62 Energy:      -618.884725  Gnorm:      0.031892  CPU:    9.367
  Cycle:     63 Energy:      -618.888091  Gnorm:      0.033567  CPU:    9.514
  Cycle:     64 Energy:      -618.890940  Gnorm:      0.032000  CPU:    9.652
  Cycle:     65 Energy:      -618.894680  Gnorm:      0.045029  CPU:    9.794
  Cycle:     66 Energy:      -618.899330  Gnorm:      0.046937  CPU:    9.935
  Cycle:     67 Energy:      -618.903419  Gnorm:      0.047528  CPU:   10.080
  Cycle:     68 Energy:      -618.915188  Gnorm:      0.063137  CPU:   10.255
  Cycle:     69 Energy:      -618.925450  Gnorm:      0.083995  CPU:   10.393
  Cycle:     70 Energy:      -618.933658  Gnorm:      0.061283  CPU:   10.533
  Cycle:     71 Energy:      -618.941877  Gnorm:      0.051120  CPU:   10.672
  Cycle:     72 Energy:      -618.946098  Gnorm:      0.042147  CPU:   10.815
  Cycle:     73 Energy:      -618.952419  Gnorm:      0.044964  CPU:   11.011
  Cycle:     74 Energy:      -618.957985  Gnorm:      0.039606  CPU:   11.159
  Cycle:     75 Energy:      -618.966619  Gnorm:      0.078529  CPU:   11.344
  Cycle:     76 Energy:      -619.036815  Gnorm:      0.189214  CPU:   11.586
  Cycle:     77 Energy:      -619.372457  Gnorm:      0.371665  CPU:   11.762
  Cycle:     78 Energy:      -619.680164  Gnorm:      0.503723  CPU:   11.909
  Cycle:     79 Energy:      -620.312136  Gnorm:      0.726701  CPU:   12.058
  Cycle:     80 Energy:      -620.689201  Gnorm:      0.347841  CPU:   12.243
  Cycle:     81 Energy:      -622.276941  Gnorm:      0.958545  CPU:   12.485
  Cycle:     82 Energy:      -623.332436  Gnorm:      0.802090  CPU:   12.674
  Cycle:     83 Energy:      -624.646743  Gnorm:      0.607288  CPU:   12.877
  Cycle:     84 Energy:      -625.457254  Gnorm:      0.530306  CPU:   13.058
  Cycle:     85 Energy:      -626.258363  Gnorm:      0.655364  CPU:   13.185
  Cycle:     86 Energy:      -627.324299  Gnorm:      0.640944  CPU:   13.282
  Cycle:     87 Energy:      -628.359850  Gnorm:      0.695067  CPU:   13.411
  Cycle:     88 Energy:      -629.887786  Gnorm:      0.730091  CPU:   13.557
  Cycle:     89 Energy:      -631.033585  Gnorm:      0.680795  CPU:   13.655
  Cycle:     90 Energy:      -632.023729  Gnorm:      0.574016  CPU:   13.775
  Cycle:     91 Energy:      -632.858411  Gnorm:      0.522594  CPU:   13.895
  Cycle:     92 Energy:      -633.806568  Gnorm:      0.570546  CPU:   14.015
  Cycle:     93 Energy:      -634.555641  Gnorm:      0.500722  CPU:   14.113
  Cycle:     94 Energy:      -635.388223  Gnorm:      0.464714  CPU:   14.233
  Cycle:     95 Energy:      -635.920540  Gnorm:      0.426731  CPU:   14.329
  Cycle:     96 Energy:      -636.396807  Gnorm:      0.419457  CPU:   14.481
  Cycle:     97 Energy:      -636.881456  Gnorm:      0.419566  CPU:   14.661
  Cycle:     98 Energy:      -637.336201  Gnorm:      0.348431  CPU:   14.843
  Cycle:     99 Energy:      -637.635232  Gnorm:      0.297522  CPU:   15.024
  Cycle:    100 Energy:      -637.764635  Gnorm:      0.233219  CPU:   15.167
  Cycle:    101 Energy:      -637.924338  Gnorm:      0.234288  CPU:   15.348
  Cycle:    102 Energy:      -638.105379  Gnorm:      0.273351  CPU:   15.524
  Cycle:    103 Energy:      -638.445125  Gnorm:      0.342050  CPU:   15.669
  Cycle:    104 Energy:      -638.687894  Gnorm:      0.324357  CPU:   15.767
  Cycle:    105 Energy:      -639.083432  Gnorm:      0.351942  CPU:   15.889
  Cycle:    106 Energy:      -639.388014  Gnorm:      0.340495  CPU:   15.986
  Cycle:    107 Energy:      -639.637966  Gnorm:      0.321479  CPU:   16.088
  Cycle:    108 Energy:      -639.875051  Gnorm:      0.285660  CPU:   16.243
  Cycle:    109 Energy:      -640.097394  Gnorm:      0.321967  CPU:   16.445
  Cycle:    110 Energy:      -640.216108  Gnorm:      0.235518  CPU:   16.594
  Cycle:    111 Energy:      -640.396197  Gnorm:      0.222197  CPU:   16.771
  Cycle:    112 Energy:      -640.492758  Gnorm:      0.207590  CPU:   16.919
  Cycle:    113 Energy:      -640.630663  Gnorm:      0.255422  CPU:   17.152
  Cycle:    114 Energy:      -640.863744  Gnorm:      0.268792  CPU:   17.356
  Cycle:    115 Energy:      -641.117378  Gnorm:      0.301486  CPU:   17.566
  Cycle:    116 Energy:      -641.340892  Gnorm:      0.320993  CPU:   17.716
  Cycle:    117 Energy:      -641.538002  Gnorm:      0.318832  CPU:   17.866
  Cycle:    118 Energy:      -641.731665  Gnorm:      0.297137  CPU:   18.128
  Cycle:    119 Energy:      -641.922368  Gnorm:      0.258273  CPU:   18.478
  Cycle:    120 Energy:      -642.013735  Gnorm:      0.216471  CPU:   18.672
  Cycle:    121 Energy:      -642.145242  Gnorm:      0.232304  CPU:   18.854
  Cycle:    122 Energy:      -642.248815  Gnorm:      0.197735  CPU:   18.999
  Cycle:    123 Energy:      -642.317445  Gnorm:      0.165526  CPU:   19.133
  Cycle:    124 Energy:      -642.383186  Gnorm:      0.140524  CPU:   19.280
  Cycle:    125 Energy:      -642.452492  Gnorm:      0.146294  CPU:   19.427
  Cycle:    126 Energy:      -642.514724  Gnorm:      0.152195  CPU:   19.544
  Cycle:    127 Energy:      -642.549820  Gnorm:      0.133961  CPU:   19.664
  Cycle:    128 Energy:      -642.591511  Gnorm:      0.108839  CPU:   19.816
  Cycle:    129 Energy:      -642.627656  Gnorm:      0.107849  CPU:   19.969
  Cycle:    130 Energy:      -642.644381  Gnorm:      0.084827  CPU:   20.098
  Cycle:    131 Energy:      -642.658801  Gnorm:      0.083534  CPU:   20.282
  Cycle:    132 Energy:      -642.674551  Gnorm:      0.076964  CPU:   20.437
  Cycle:    133 Energy:      -642.691825  Gnorm:      0.084173  CPU:   20.582
  Cycle:    134 Energy:      -642.707799  Gnorm:      0.078669  CPU:   20.702
  Cycle:    135 Energy:      -642.726162  Gnorm:      0.076635  CPU:   20.848
  Cycle:    136 Energy:      -642.747639  Gnorm:      0.090197  CPU:   20.999
  Cycle:    137 Energy:      -642.779801  Gnorm:      0.129784  CPU:   21.152
  Cycle:    138 Energy:      -642.813545  Gnorm:      0.142988  CPU:   21.274
  Cycle:    139 Energy:      -642.858779  Gnorm:      0.162012  CPU:   21.440
  Cycle:    140 Energy:      -642.885996  Gnorm:      0.114029  CPU:   21.734
  Cycle:    141 Energy:      -642.921434  Gnorm:      0.123182  CPU:   21.948
  Cycle:    142 Energy:      -642.957057  Gnorm:      0.098706  CPU:   22.068
  Cycle:    143 Energy:      -642.989191  Gnorm:      0.105101  CPU:   22.220
  Cycle:    144 Energy:      -643.022296  Gnorm:      0.112845  CPU:   22.370
  Cycle:    145 Energy:      -643.055129  Gnorm:      0.123602  CPU:   22.493
  Cycle:    146 Energy:      -643.097577  Gnorm:      0.130895  CPU:   22.645
  Cycle:    147 Energy:      -643.133775  Gnorm:      0.123175  CPU:   22.775
  Cycle:    148 Energy:      -643.167739  Gnorm:      0.125149  CPU:   22.936
  Cycle:    149 Energy:      -643.210377  Gnorm:      0.128607  CPU:   23.088
  Cycle:    150 Energy:      -643.237668  Gnorm:      0.101389  CPU:   23.211
  Cycle:    151 Energy:      -643.263866  Gnorm:      0.113753  CPU:   23.365
  Cycle:    152 Energy:      -643.295398  Gnorm:      0.117102  CPU:   23.531
  Cycle:    153 Energy:      -643.330021  Gnorm:      0.099501  CPU:   23.693
  Cycle:    154 Energy:      -643.360730  Gnorm:      0.113915  CPU:   23.847
  Cycle:    155 Energy:      -643.398544  Gnorm:      0.114592  CPU:   24.009
  Cycle:    156 Energy:      -643.447150  Gnorm:      0.147976  CPU:   24.160
  Cycle:    157 Energy:      -643.519021  Gnorm:      0.182489  CPU:   24.323
  Cycle:    158 Energy:      -643.593897  Gnorm:      0.187708  CPU:   24.441
  Cycle:    159 Energy:      -643.663993  Gnorm:      0.198836  CPU:   24.566
  Cycle:    160 Energy:      -643.722933  Gnorm:      0.164362  CPU:   24.693
  Cycle:    161 Energy:      -643.782866  Gnorm:      0.145790  CPU:   24.853
  Cycle:    162 Energy:      -643.825637  Gnorm:      0.109945  CPU:   24.971
  Cycle:    163 Energy:      -643.854620  Gnorm:      0.092121  CPU:   25.131
  Cycle:    164 Energy:      -643.879815  Gnorm:      0.084707  CPU:   25.278
  Cycle:    165 Energy:      -643.897542  Gnorm:      0.063790  CPU:   25.405
  Cycle:    166 Energy:      -643.907251  Gnorm:      0.051542  CPU:   25.565
  Cycle:    167 Energy:      -643.912954  Gnorm:      0.034724  CPU:   25.692
  Cycle:    168 Energy:      -643.915709  Gnorm:      0.026173  CPU:   25.822
  Cycle:    169 Energy:      -643.918536  Gnorm:      0.036892  CPU:   25.984
  Cycle:    170 Energy:      -643.919894  Gnorm:      0.021671  CPU:   26.108
  Cycle:    171 Energy:      -643.921087  Gnorm:      0.021493  CPU:   26.232
  Cycle:    172 Energy:      -643.922894  Gnorm:      0.022633  CPU:   26.358
  Cycle:    173 Energy:      -643.924509  Gnorm:      0.024112  CPU:   26.481
  Cycle:    174 Energy:      -643.926493  Gnorm:      0.023020  CPU:   26.608
  Cycle:    175 Energy:      -643.928109  Gnorm:      0.020631  CPU:   26.730
  Cycle:    176 Energy:      -643.929619  Gnorm:      0.023513  CPU:   26.883
  Cycle:    177 Energy:      -643.930985  Gnorm:      0.024310  CPU:   27.004
  Cycle:    178 Energy:      -643.932171  Gnorm:      0.022785  CPU:   27.127
  Cycle:    179 Energy:      -643.933450  Gnorm:      0.021822  CPU:   27.278
  Cycle:    180 Energy:      -643.934239  Gnorm:      0.015980  CPU:   27.401
  Cycle:    181 Energy:      -643.934810  Gnorm:      0.015597  CPU:   27.520
  Cycle:    182 Energy:      -643.935298  Gnorm:      0.013541  CPU:   27.640
  Cycle:    183 Energy:      -643.935722  Gnorm:      0.011977  CPU:   27.760
  Cycle:    184 Energy:      -643.936221  Gnorm:      0.014172  CPU:   27.881
  Cycle:    185 Energy:      -643.936894  Gnorm:      0.015625  CPU:   28.009
  Cycle:    186 Energy:      -643.937704  Gnorm:      0.017602  CPU:   28.158
  Cycle:    187 Energy:      -643.938901  Gnorm:      0.020647  CPU:   28.304
  Cycle:    188 Energy:      -643.940028  Gnorm:      0.022201  CPU:   28.424
  Cycle:    189 Energy:      -643.941680  Gnorm:      0.036700  CPU:   28.571
  Cycle:    190 Energy:      -643.943123  Gnorm:      0.024204  CPU:   28.689
  Cycle:    191 Energy:      -643.944672  Gnorm:      0.023781  CPU:   28.809
  Cycle:    192 Energy:      -643.946700  Gnorm:      0.024413  CPU:   28.932
  Cycle:    193 Energy:      -643.948348  Gnorm:      0.025861  CPU:   29.058
  Cycle:    194 Energy:      -643.950548  Gnorm:      0.027406  CPU:   29.177
  Cycle:    195 Energy:      -643.953046  Gnorm:      0.029433  CPU:   29.323
  Cycle:    196 Energy:      -643.956601  Gnorm:      0.042114  CPU:   29.469
  Cycle:    197 Energy:      -643.964003  Gnorm:      0.069250  CPU:   29.624
  Cycle:    198 Energy:      -643.981966  Gnorm:      0.119952  CPU:   29.779
  Cycle:    199 Energy:      -644.018309  Gnorm:      0.189526  CPU:   29.904
  Cycle:    200 Energy:      -644.050968  Gnorm:      0.114566  CPU:   30.055
  Cycle:    201 Energy:      -644.099245  Gnorm:      0.126713  CPU:   30.203
  Cycle:    202 Energy:      -644.140043  Gnorm:      0.096979  CPU:   30.322
  Cycle:    203 Energy:      -644.162833  Gnorm:      0.094594  CPU:   30.472
  Cycle:    204 Energy:      -644.194040  Gnorm:      0.104899  CPU:   30.628
  Cycle:    205 Energy:      -644.223576  Gnorm:      0.094012  CPU:   30.754
  Cycle:    206 Energy:      -644.244689  Gnorm:      0.093018  CPU:   30.878
  Cycle:    207 Energy:      -644.261391  Gnorm:      0.081246  CPU:   31.004
  Cycle:    208 Energy:      -644.275056  Gnorm:      0.072169  CPU:   31.157
  Cycle:    209 Energy:      -644.289812  Gnorm:      0.080173  CPU:   31.303
  Cycle:    210 Energy:      -644.299756  Gnorm:      0.062924  CPU:   31.428
  Cycle:    211 Energy:      -644.308937  Gnorm:      0.065227  CPU:   31.552
  Cycle:    212 Energy:      -644.318884  Gnorm:      0.065205  CPU:   31.709
  Cycle:    213 Energy:      -644.329166  Gnorm:      0.057187  CPU:   31.834
  Cycle:    214 Energy:      -644.339497  Gnorm:      0.054396  CPU:   31.961
  Cycle:    215 Energy:      -644.347075  Gnorm:      0.044238  CPU:   32.083
  Cycle:    216 Energy:      -644.351546  Gnorm:      0.041979  CPU:   32.206
  Cycle:    217 Energy:      -644.357727  Gnorm:      0.046377  CPU:   32.358
  Cycle:    218 Energy:      -644.362566  Gnorm:      0.037656  CPU:   32.482
  Cycle:    219 Energy:      -644.365127  Gnorm:      0.041011  CPU:   32.603
  Cycle:    220 Energy:      -644.366992  Gnorm:      0.030642  CPU:   32.722
  Cycle:    221 Energy:      -644.369654  Gnorm:      0.031555  CPU:   32.841
  Cycle:    222 Energy:      -644.372279  Gnorm:      0.025385  CPU:   32.960
  Cycle:    223 Energy:      -644.373668  Gnorm:      0.023557  CPU:   33.080
  Cycle:    224 Energy:      -644.375409  Gnorm:      0.024220  CPU:   33.198
  Cycle:    225 Energy:      -644.377261  Gnorm:      0.023213  CPU:   33.316
  Cycle:    226 Energy:      -644.378578  Gnorm:      0.023368  CPU:   33.438
  Cycle:    227 Energy:      -644.379537  Gnorm:      0.019553  CPU:   33.556
  Cycle:    228 Energy:      -644.380384  Gnorm:      0.018271  CPU:   33.675
  Cycle:    229 Energy:      -644.381344  Gnorm:      0.022717  CPU:   33.882
  Cycle:    230 Energy:      -644.382136  Gnorm:      0.016306  CPU:   33.999
  Cycle:    231 Energy:      -644.382745  Gnorm:      0.016122  CPU:   34.118
  Cycle:    232 Energy:      -644.383333  Gnorm:      0.017466  CPU:   34.241
  Cycle:    233 Energy:      -644.384020  Gnorm:      0.015600  CPU:   34.360
  Cycle:    234 Energy:      -644.384785  Gnorm:      0.015132  CPU:   34.539
  Cycle:    235 Energy:      -644.385405  Gnorm:      0.013970  CPU:   34.657
  Cycle:    236 Energy:      -644.385849  Gnorm:      0.013265  CPU:   34.773
  Cycle:    237 Energy:      -644.386544  Gnorm:      0.014696  CPU:   34.892
  Cycle:    238 Energy:      -644.387171  Gnorm:      0.011904  CPU:   35.010
  Cycle:    239 Energy:      -644.388406  Gnorm:      0.030225  CPU:   35.157
  Cycle:    240 Energy:      -644.389129  Gnorm:      0.012963  CPU:   35.275
  Cycle:    241 Energy:      -644.389501  Gnorm:      0.011705  CPU:   35.393
  Cycle:    242 Energy:      -644.389894  Gnorm:      0.009222  CPU:   35.514
  ** Hessian has required structure
  Cycle:    243 Energy:      -644.392400  Gnorm:      0.006590  CPU:   35.860
  ** Hessian has required structure
  Cycle:    244 Energy:      -644.395090  Gnorm:      0.004617  CPU:   36.056
  ** Hessian has required structure
  Cycle:    245 Energy:      -644.399415  Gnorm:      0.010240  CPU:   36.279
  ** Hessian has wrong structure
  ** Imaginary eigenvectors =   1
  Cycle:    246 Energy:      -644.473151  Gnorm:      0.063239  CPU:   36.760
  ** Hessian has wrong structure
  ** Imaginary eigenvectors =   1
  Cycle:    247 Energy:      -644.627521  Gnorm:      0.118303  CPU:   37.298
  ** Hessian has wrong structure
  ** Imaginary eigenvectors =   1
  ** Hessian has wrong structure
  ** Imaginary eigenvectors =   1
  Cycle:    248 Energy:      -644.798141  Gnorm:      0.169527  CPU:   38.033
  ** Hessian has required structure
  Cycle:    249 Energy:      -644.877743  Gnorm:      0.307786  CPU:   38.173
  ** Hessian has required structure
  ** Hessian has wrong structure
  ** Imaginary eigenvectors =   1
  ** Hessian has required structure
  Cycle:    250 Energy:      -645.707720  Gnorm:      0.297153  CPU:   38.868
  ** Hessian has required structure
  Cycle:    251 Energy:      -646.058764  Gnorm:      0.139728  CPU:   39.008
  ** Hessian has required structure
  Cycle:    252 Energy:      -646.184177  Gnorm:      0.178545  CPU:   39.152
  ** Hessian has required structure
  Cycle:    253 Energy:      -646.292083  Gnorm:      0.133877  CPU:   39.289
  ** Hessian has required structure
  Cycle:    254 Energy:      -646.405769  Gnorm:      0.142395  CPU:   39.426
  ** Hessian has required structure
  Cycle:    255 Energy:      -646.465690  Gnorm:      0.129486  CPU:   39.525
  ** Hessian has required structure
  Cycle:    256 Energy:      -646.543635  Gnorm:      0.123669  CPU:   39.646
  ** Hessian has required structure
  Cycle:    257 Energy:      -646.641020  Gnorm:      0.168901  CPU:   39.764
  ** Hessian has required structure
  Cycle:    258 Energy:      -646.735849  Gnorm:      0.201205  CPU:   39.872
  ** Hessian has required structure
  Cycle:    259 Energy:      -646.817959  Gnorm:      0.169961  CPU:   39.978
  ** Hessian has required structure
  Cycle:    260 Energy:      -646.989671  Gnorm:      0.055444  CPU:   40.213
  ** Hessian has required structure
  Cycle:    261 Energy:      -647.001062  Gnorm:      0.024897  CPU:   40.314
  ** Hessian has required structure
  Cycle:    262 Energy:      -647.006147  Gnorm:      0.007477  CPU:   40.419
  ** Hessian has required structure
  Cycle:    263 Energy:      -647.006607  Gnorm:      0.003271  CPU:   40.524
  ** Hessian has required structure
  Cycle:    264 Energy:      -647.006733  Gnorm:      0.002250  CPU:   40.630
  ** Hessian has required structure
  Cycle:    265 Energy:      -647.006777  Gnorm:      0.000804  CPU:   40.735
  ** Hessian has required structure


  **** Optimisation achieved ****


  Final enthalpy =    -647.00678363 eV      
  Final Gnorm    =       0.00024356

  Components of enthalpy : 

--------------------------------------------------------------------------------
  Interatomic potentials     =         223.78258839 eV    
  Monopole - monopole (real) =        -511.84350548 eV    
  Monopole - monopole (recip)=        -488.22343291 eV    
  Monopole - monopole (total)=       -1000.06693839 eV    
  Pressure*volume            =         129.27756637 eV    
--------------------------------------------------------------------------------
  Total lattice enthalpy     =        -647.00678363 eV    
--------------------------------------------------------------------------------
  Total lattice enthalpy     =          -62426.2642 kJ/(mole unit cells)
--------------------------------------------------------------------------------

  Final fractional coordinates of atoms :

--------------------------------------------------------------------------------
   No.  Atomic        x           y          z          Radius
        Label       (Frac)      (Frac)     (Frac)       (Angs) 
--------------------------------------------------------------------------------
     1  Al    c     0.000000    0.000000    0.000000    0.000000
     2  Al    c     0.074354    0.635480    0.770858    0.000000
     3  Al    c     0.456291    0.958621    0.512639    0.000000
     4  Al    c     0.556958    0.593643    0.274045    0.000000
     5  Al    c     0.566434    0.639384    0.775029    0.000000
     6  Al    c     0.737783    0.255137    0.371179    0.000000
     7  Al    c     0.070480    0.634997    0.258945    0.000000
     8  Al    c     0.274339    0.297484    0.875698    0.000000
     9  Mg    c     0.260494    0.300248    0.387113    0.000000
    10  Mg    c     0.477284    0.966649    0.999997    0.000000
    11  Mg    c     0.776978    0.314377    0.882677    0.000000
    12  Mg    c     0.967085    0.961093    0.489813    0.000000
    13  O     c     0.115921    0.876254    0.812309    0.000000
    14  O     c     0.196907    0.463364    0.626470    0.000000
    15  O     c     0.414112    0.693738    0.462537    0.000000
    16  O     c     0.629704    0.417969    0.531713    0.000000
    17  O     c     0.903988    0.175062    0.196800    0.000000
    18  O     c     0.636279    0.998773    0.362436    0.000000
    19  O     c     0.610953    0.404197    0.083617    0.000000
    20  O     c     0.677261    0.912398    0.819093    0.000000
    21  O     c     0.132137    0.891552    0.284019    0.000000
    22  O     c     0.887402    0.662112    0.425872    0.000000
    23  O     c     0.871281    0.623945    0.929426    0.000000
    24  O     c     0.440553    0.692392    0.986927    0.000000
    25  O     c     0.187148    0.461657    0.097146    0.000000
    26  O     c     0.323660    0.159637    0.130706    0.000000
    27  O     c     0.949869    0.198499    0.709808    0.000000
    28  O     c     0.388727    0.146327    0.681089    0.000000
--------------------------------------------------------------------------------

  Final Cartesian lattice vectors (Angstroms) :

        5.579595   -0.489606   -1.253750
       -0.393225    7.249397   -0.174964
       -1.242689   -0.288916    5.438985


  Final cell parameters and derivatives :

--------------------------------------------------------------------------------
       a            5.739642 Angstrom     dE/de1(xx)     0.002222 eV/strain
       b            7.262162 Angstrom     dE/de2(yy)     0.000546 eV/strain
       c            5.586619 Angstrom     dE/de3(zz)    -0.003028 eV/strain
       alpha       93.614100 Degrees      dE/de4(yz)    -0.001361 eV/strain
       beta       115.118434 Degrees      dE/de5(xz)     0.002818 eV/strain
       gamma       97.615652 Degrees      dE/de6(xy)    -0.000563 eV/strain
--------------------------------------------------------------------------------

  Primitive cell volume =           207.127095 Angs**3

  Density of cell =      4.562390 g/cm**3

  Non-primitive cell volume =           207.127095 Angs**3


  Final internal derivatives :

--------------------------------------------------------------------------------
   No.  Atomic          a             b             c           Radius
        Label          (eV)          (eV)          (eV)        (eV/Angs)
--------------------------------------------------------------------------------
      1 Al    c       0.000000      0.000000      0.000000      0.000000
      2 Al    c      -0.001741     -0.000954      0.001126      0.000000
      3 Al    c       0.002325      0.000964     -0.000367      0.000000
      4 Al    c      -0.002515      0.000094      0.002588      0.000000
      5 Al    c       0.003469     -0.002700     -0.003403      0.000000
      6 Al    c       0.000357      0.003108     -0.000796      0.000000
      7 Al    c       0.000867      0.001315     -0.001201      0.000000
      8 Al    c       0.000496      0.001102      0.001647      0.000000
      9 Mg    c       0.001996      0.002222     -0.001850      0.000000
     10 Mg    c       0.000479      0.000345     -0.000923      0.000000
     11 Mg    c      -0.001175      0.002863     -0.000494      0.000000
     12 Mg    c      -0.001245     -0.001489     -0.000711      0.000000
     13 O     c      -0.001334      0.001104     -0.000136      0.000000
     14 O     c      -0.004641     -0.004479      0.002918      0.000000
     15 O     c      -0.000746     -0.000551     -0.000976      0.000000
     16 O     c      -0.004923      0.002354      0.003621      0.000000
     17 O     c       0.000294     -0.001854     -0.001114      0.000000
     18 O     c      -0.001865     -0.007750      0.003780      0.000000
     19 O     c      -0.001541      0.000195     -0.001617      0.000000
     20 O     c      -0.000954     -0.004329     -0.001700      0.000000
     21 O     c      -0.001539      0.000982     -0.000276      0.000000
     22 O     c       0.005088      0.001811     -0.000281      0.000000
     23 O     c       0.005561      0.000423     -0.001308      0.000000
     24 O     c      -0.001515      0.003101      0.003558      0.000000
     25 O     c       0.000108      0.000237     -0.000515      0.000000
     26 O     c       0.001821      0.001707     -0.000717      0.000000
     27 O     c       0.003620      0.000339     -0.001427      0.000000
     28 O     c       0.000235     -0.001469      0.000387      0.000000
--------------------------------------------------------------------------------
  Maximum abs         0.005561      0.007750      0.003780      0.000000
--------------------------------------------------------------------------------


  Time to end of optimisation =      40.8573 seconds


  Peak dynamic memory used =       2.03 MB 


  Timing analysis for GULP :

--------------------------------------------------------------------------------
  Task / Subroutine                                          Time (Seconds)
--------------------------------------------------------------------------------
  Calculation of reciprocal space energy and derivatives          1.0148
  Calculation of real space energy and derivatives               39.1907
  Calculation and manipulation of Hessian matrix                  1.4434
  Global summation overhead                                       0.0037
--------------------------------------------------------------------------------
  Total CPU time                                                 40.8573
--------------------------------------------------------------------------------


  Job Finished at 16:47.31 11th June       2024                               

