********************************************************************************
*                       GENERAL UTILITY LATTICE PROGRAM                        *
*                                 Julian Gale                                  *
*                       Curtin Institute for Computation                       *
*                    School of Molecular and Life Sciences                     *
*                    Curtin University, Western Australia                      *
********************************************************************************
* Version = 6.0.0 * Last modified =  12th July 2021                            *
********************************************************************************
*  optimise     - perform optimisation run                                     *
*  conp         - constant pressure calculation                                *
*  conjugate    - use conjugate gradients minimiser                            *
********************************************************************************

  Job Started  at 11:11.53 29th May        2024                               

  Number of CPUs =     1


  Total number of configurations input =      1

********************************************************************************
*  Input for Configuration =   1                                               *
********************************************************************************

  Formula = Ti4O8                                                       

  Number of irreducible atoms/shells =      12


  Total number atoms/shells =      12

  Dimensionality = 3               :  Bulk   



  Cartesian lattice vectors (Angstroms) :

        4.552242   -0.082454   -1.101264
       -0.200273    6.751124   -0.140678
        0.227409   -0.706394    4.327993

  Cell parameters (Angstroms/Degrees):

  a =       4.6843    alpha = 100.5342
  b =       6.7556    beta  = 100.2857
  c =       4.3912    gamma =  92.3788

  Initial cell volume =         134.024851 Angs**3

  Temperature of configuration =   0.00     K 

  Pressure of configuration =         0.000 GPa 

  Fractional coordinates of asymmetric unit :

--------------------------------------------------------------------------------
   No.  Atomic       x           y          z         Charge      Occupancy
        Label      (Frac)      (Frac)     (Frac)        (e)         (Frac)  
--------------------------------------------------------------------------------
      1 Ti    c    0.345857    0.628062    0.899104     2.19600    1.000000    
      2 Ti    c    0.345860 *  0.052183 *  0.899099 *   2.19600    1.000000    
      3 Ti    c    0.078641 *  0.884100 *  0.467257 *   2.19600    1.000000    
      4 Ti    c    0.924013 *  0.123782 *  0.805198 *   2.19600    1.000000    
      5 O     c    0.008838 *  0.965443 *  0.899109 *  -1.09800    1.000000    
      6 O     c    0.008845 *  0.389564 *  0.899117 *  -1.09800    1.000000    
      7 O     c    0.707817 *  0.048908 *  0.323200 *  -1.09800    1.000000    
      8 O     c    0.597751 *  0.882241 *  0.899080 *  -1.09800    1.000000    
      9 O     c    0.144960 *  0.707992 *  0.323233 *  -1.09800    1.000000    
     10 O     c    0.144976 *  0.132111 *  0.323231 *  -1.09800    1.000000    
     11 O     c    0.707804 *  0.624790 *  0.323202 *  -1.09800    1.000000    
     12 O     c    0.597759 *  0.306362 *  0.899065 *  -1.09800    1.000000    
--------------------------------------------------------------------------------



********************************************************************************
*  General input information                                                   *
********************************************************************************

  Species output for all configurations : 

--------------------------------------------------------------------------------
  Species    Type    Atomic    Atomic    Charge       Radii (Angs)     Library
                     Number     Mass       (e)     Cova   Ionic  VDW   Symbol
--------------------------------------------------------------------------------
    Ti       Core       22      47.88   2.196000   1.470  0.000  2.190          
    O        Core        8      16.00  -1.098000   0.730  0.000  1.360          
--------------------------------------------------------------------------------


  Lattice summation method               =    Ewald          (3-D)
                                         =    Parry          (2-D)
                                         =    Saunders et al (1-D)
  Accuracy factor for lattice sums       =   12.000


  Analytic derivatives to be used

  Time limit = Infinity

  Maximum range for interatomic potentials =    100000.000000 Angstroms

  General interatomic potentials :

--------------------------------------------------------------------------------
Atom  Types   Potential      Parameter       Value         Units   Cutoffs(Ang)
  1     2                                                            Min /  Max 
--------------------------------------------------------------------------------
Ti   c Ti   c Buckingham    Buckingham A     31120.100    eV        0.000 15.000
                            Buckingham rho  0.15400000    Ang       
                            Buckingham C     5.2500000    eV*Ang^6  
--------------------------------------------------------------------------------
O    c O    c Buckingham    Buckingham A     11782.700    eV        0.000 15.000
                            Buckingham rho  0.23400000    Ang       
                            Buckingham C     30.220000    eV*Ang^6  
--------------------------------------------------------------------------------
O    c Ti   c Buckingham    Buckingham A     16957.500    eV        0.000 15.000
                            Buckingham rho  0.19400000    Ang       
                            Buckingham C     12.590000    eV*Ang^6  
--------------------------------------------------------------------------------
Ti   c Ti   c Lennard       Lennard-Jones A  1.0000000    eV*Ang^m  0.000 15.000
                            Lennard-Jones B  0.0000000    eV*Ang^n  
                            Exponent m        12          None
                            Exponent n         6          None
--------------------------------------------------------------------------------
O    c O    c Lennard       Lennard-Jones A  1.0000000    eV*Ang^m  0.000 15.000
                            Lennard-Jones B  0.0000000    eV*Ang^n  
                            Exponent m        12          None
                            Exponent n         6          None
--------------------------------------------------------------------------------
O    c Ti   c Lennard       Lennard-Jones A  1.0000000    eV*Ang^m  0.000 15.000
                            Lennard-Jones B  0.0000000    eV*Ang^n  
                            Exponent m        12          None
                            Exponent n         6          None
--------------------------------------------------------------------------------

********************************************************************************
*  Output for configuration   1                                                *
********************************************************************************


  Components of energy : 

--------------------------------------------------------------------------------
  Interatomic potentials     =          56.44656956 eV    
  Monopole - monopole (real) =         -52.97324916 eV    
  Monopole - monopole (recip)=         -94.40969701 eV    
  Monopole - monopole (total)=        -147.38294616 eV    
--------------------------------------------------------------------------------
  Total lattice energy       =         -90.93637660 eV    
--------------------------------------------------------------------------------
  Total lattice energy       =           -8773.9703 kJ/(mole unit cells)
--------------------------------------------------------------------------------


  Number of variables =       39

  Maximum number of calculations  =          1000
  Maximum Hessian update interval =            10
  Maximum step size               =   1.000000000
  Maximum parameter tolerance     =   0.000010000
  Maximum function  tolerance     =   0.000010000
  Maximum gradient  tolerance     =   0.001000000
  Maximum gradient  component     =   0.010000000

  Symmetry not applied to optimisation

  Cell parameters to be optimised using strains

  Conjugate gradient optimiser to be used

  Lower half triangular hessian to be used

  Minimiser to switch to BFGS with exact hessian
  When gradient norm is less than     0.500000

  Start of bulk optimisation :

  Cycle:      0 Energy:       -90.936377  Gnorm:     29.729569  CPU:    0.025
  Cycle:      1 Energy:      -120.605283  Gnorm:      6.975079  CPU:    0.060
  Cycle:      2 Energy:      -133.831415  Gnorm:      3.508958  CPU:    0.107
  Cycle:      3 Energy:      -142.630553  Gnorm:      3.634661  CPU:    0.140
  Cycle:      4 Energy:      -147.470738  Gnorm:      1.612683  CPU:    0.166
  Cycle:      5 Energy:      -149.593895  Gnorm:      1.280182  CPU:    0.198
  Cycle:      6 Energy:      -150.638070  Gnorm:      0.722691  CPU:    0.225
  Cycle:      7 Energy:      -151.233550  Gnorm:      0.554247  CPU:    0.253
  Cycle:      8 Energy:      -151.493619  Gnorm:      0.503624  CPU:    0.275
  Cycle:      9 Energy:      -151.727837  Gnorm:      0.490199  CPU:    0.302
  ** Hessian calculated **
  Cycle:     10 Energy:      -152.110036  Gnorm:      0.406411  CPU:    0.375
  ** Hessian calculated **
  Cycle:     11 Energy:      -152.217909  Gnorm:      0.197400  CPU:    0.440
  Cycle:     12 Energy:      -152.334190  Gnorm:      0.285496  CPU:    0.474
  Cycle:     13 Energy:      -152.587631  Gnorm:      0.438867  CPU:    0.506
  Cycle:     14 Energy:      -152.917605  Gnorm:      0.525379  CPU:    0.535
  Cycle:     15 Energy:      -153.250757  Gnorm:      0.546742  CPU:    0.559
  Cycle:     16 Energy:      -153.647061  Gnorm:      0.354316  CPU:    0.588
  Cycle:     17 Energy:      -153.868354  Gnorm:      0.356246  CPU:    0.612
  Cycle:     18 Energy:      -153.983388  Gnorm:      0.236267  CPU:    0.636
  Cycle:     19 Energy:      -154.063716  Gnorm:      0.186272  CPU:    0.666
  Cycle:     20 Energy:      -154.143277  Gnorm:      0.235436  CPU:    0.695
  ** Hessian calculated **
  Cycle:     21 Energy:      -154.346237  Gnorm:      0.332084  CPU:    0.771
  ** Hessian calculated **
  Cycle:     22 Energy:      -154.450927  Gnorm:      0.071373  CPU:    0.846
  Cycle:     23 Energy:      -154.461377  Gnorm:      0.090689  CPU:    0.876
  ** Hessian calculated **
  Cycle:     24 Energy:      -154.465763  Gnorm:      0.092134  CPU:    0.953
  ** Hessian calculated **
  Cycle:     25 Energy:      -154.475710  Gnorm:      0.045697  CPU:    1.025
  Cycle:     26 Energy:      -154.478269  Gnorm:      0.033690  CPU:    1.054
  Cycle:     27 Energy:      -154.480281  Gnorm:      0.032772  CPU:    1.090
  Cycle:     28 Energy:      -154.482388  Gnorm:      0.029139  CPU:    1.126
  Cycle:     29 Energy:      -154.485037  Gnorm:      0.041627  CPU:    1.162
  Cycle:     30 Energy:      -154.492829  Gnorm:      0.067312  CPU:    1.204
  Cycle:     31 Energy:      -154.505085  Gnorm:      0.073091  CPU:    1.240
  Cycle:     32 Energy:      -154.519055  Gnorm:      0.084434  CPU:    1.276
  Cycle:     33 Energy:      -154.535068  Gnorm:      0.089709  CPU:    1.305
  Cycle:     34 Energy:      -154.556983  Gnorm:      0.081956  CPU:    1.340
  ** Hessian calculated **
  Cycle:     35 Energy:      -154.648909  Gnorm:      0.110501  CPU:    1.419
  ** Hessian calculated **
  Cycle:     36 Energy:      -154.669633  Gnorm:      0.087788  CPU:    1.487
  Cycle:     37 Energy:      -154.689111  Gnorm:      0.095371  CPU:    1.520
  Cycle:     38 Energy:      -154.707654  Gnorm:      0.102810  CPU:    1.552
  Cycle:     39 Energy:      -154.736682  Gnorm:      0.151578  CPU:    1.582
  Cycle:     40 Energy:      -154.817662  Gnorm:      0.295273  CPU:    1.617
  Cycle:     41 Energy:      -154.860139  Gnorm:      0.427178  CPU:    1.642
  Cycle:     42 Energy:      -154.986888  Gnorm:      0.625372  CPU:    1.678
  Cycle:     43 Energy:      -155.162596  Gnorm:      0.640636  CPU:    1.702
  Cycle:     44 Energy:      -155.738270  Gnorm:      0.917664  CPU:    1.735
  Cycle:     45 Energy:      -156.176411  Gnorm:      1.031702  CPU:    1.757
  ** Hessian calculated **
  Cycle:     46 Energy:      -157.564600  Gnorm:      0.644226  CPU:    1.824
  Cycle:     47 Energy:      -158.231162  Gnorm:      0.581465  CPU:    1.845
  Cycle:     48 Energy:      -158.533107  Gnorm:      0.372296  CPU:    1.867
  Cycle:     49 Energy:      -158.676312  Gnorm:      0.224725  CPU:    1.888
  Cycle:     50 Energy:      -158.759512  Gnorm:      0.255449  CPU:    1.910
  Cycle:     51 Energy:      -158.862202  Gnorm:      0.201866  CPU:    1.936
  Cycle:     52 Energy:      -158.947346  Gnorm:      0.212901  CPU:    1.962
  Cycle:     53 Energy:      -159.013989  Gnorm:      0.186912  CPU:    1.988
  Cycle:     54 Energy:      -159.068717  Gnorm:      0.166253  CPU:    2.009
  Cycle:     55 Energy:      -159.134207  Gnorm:      0.131725  CPU:    2.035
  ** Hessian calculated **
  Cycle:     56 Energy:      -159.201036  Gnorm:      0.014117  CPU:    2.100
  Cycle:     57 Energy:      -159.201418  Gnorm:      0.001679  CPU:    2.122
  Cycle:     58 Energy:      -159.201429  Gnorm:      0.000275  CPU:    2.143


  **** Optimisation achieved ****


  Final energy =    -159.20142964 eV      
  Final Gnorm  =       0.00004190

  Components of energy : 

--------------------------------------------------------------------------------
  Interatomic potentials     =          12.37887661 eV    
  Monopole - monopole (real) =         -68.43753252 eV    
  Monopole - monopole (recip)=        -103.14277373 eV    
  Monopole - monopole (total)=        -171.58030625 eV    
--------------------------------------------------------------------------------
  Total lattice energy       =        -159.20142964 eV    
--------------------------------------------------------------------------------
  Total lattice energy       =          -15360.5043 kJ/(mole unit cells)
--------------------------------------------------------------------------------

  Final fractional coordinates of atoms :

--------------------------------------------------------------------------------
   No.  Atomic        x           y          z          Radius
        Label       (Frac)      (Frac)     (Frac)       (Angs) 
--------------------------------------------------------------------------------
     1  Ti    c     0.345857    0.628062    0.899104    0.000000
     2  Ti    c     0.345861    0.128062    0.399103    0.000000
     3  Ti    c     0.845858    0.628064    0.399101    0.000000
     4  Ti    c     0.845862    0.128063    0.899104    0.000000
     5  O     c     0.845856    0.824777    0.899101    0.000000
     6  O     c     0.845862    0.431349    0.899101    0.000000
     7  O     c     0.649146    0.128066    0.399102    0.000000
     8  O     c     0.345863    0.931348    0.899102    0.000000
     9  O     c     0.149143    0.628065    0.399107    0.000000
    10  O     c     0.042576    0.128059    0.399104    0.000000
    11  O     c     0.542573    0.628060    0.399100    0.000000
    12  O     c     0.345856    0.324777    0.899103    0.000000
--------------------------------------------------------------------------------

  Final Cartesian lattice vectors (Angstroms) :

        6.317115   -0.005145   -0.683744
        0.056708    6.335905    0.475934
        0.322649   -0.226937    2.982651


  Final cell parameters and derivatives :

--------------------------------------------------------------------------------
       a            6.354012 Angstrom     dE/de1(xx)     0.000541 eV/strain
       b            6.354008 Angstrom     dE/de2(yy)     0.000326 eV/strain
       c            3.008623 Angstrom     dE/de3(zz)     0.000311 eV/strain
       alpha       90.000034 Degrees      dE/de4(yz)    -0.000036 eV/strain
       beta        89.999967 Degrees      dE/de5(xz)    -0.000081 eV/strain
       gamma       89.999700 Degrees      dE/de6(xy)     0.000098 eV/strain
--------------------------------------------------------------------------------

  Primitive cell volume =           121.468470 Angs**3

  Density of cell =      4.368079 g/cm**3

  Non-primitive cell volume =           121.468470 Angs**3


  Final internal derivatives :

--------------------------------------------------------------------------------
   No.  Atomic          a             b             c           Radius
        Label          (eV)          (eV)          (eV)        (eV/Angs)
--------------------------------------------------------------------------------
      1 Ti    c       0.000000      0.000000      0.000000      0.000000
      2 Ti    c      -0.000031      0.000241     -0.000013      0.000000
      3 Ti    c       0.000296      0.000368     -0.000152      0.000000
      4 Ti    c       0.000544      0.000315      0.000237      0.000000
      5 O     c      -0.000144     -0.000591     -0.000048      0.000000
      6 O     c       0.000072      0.000130     -0.000065      0.000000
      7 O     c      -0.000130      0.000080     -0.000160      0.000000
      8 O     c       0.000228      0.000316     -0.000091      0.000000
      9 O     c      -0.000320      0.000048      0.000442      0.000000
     10 O     c       0.000197     -0.000277      0.000087      0.000000
     11 O     c       0.000141      0.000009     -0.000356      0.000000
     12 O     c      -0.000222      0.000416      0.000028      0.000000
--------------------------------------------------------------------------------
  Maximum abs         0.000544      0.000591      0.000442      0.000000
--------------------------------------------------------------------------------


  Time to end of optimisation =       2.1644 seconds


  Peak dynamic memory used =       1.84 MB 


  Timing analysis for GULP :

--------------------------------------------------------------------------------
  Task / Subroutine                                          Time (Seconds)
--------------------------------------------------------------------------------
  Calculation of reciprocal space energy and derivatives          0.0914
  Calculation of real space energy and derivatives                2.0472
  Calculation and manipulation of Hessian matrix                  0.0011
  Calculation of matrix inversion                                 0.0019
  Global summation overhead                                       0.0004
--------------------------------------------------------------------------------
  Total CPU time                                                  2.1645
--------------------------------------------------------------------------------


  Job Finished at 11:11.55 29th May        2024                               

