********************************************************************************
*                       GENERAL UTILITY LATTICE PROGRAM                        *
*                                 Julian Gale                                  *
*                       Curtin Institute for Computation                       *
*                    School of Molecular and Life Sciences                     *
*                    Curtin University, Western Australia                      *
********************************************************************************
* Version = 6.0.0 * Last modified =  12th July 2021                            *
********************************************************************************
*  optimise     - perform optimisation run                                     *
*  conp         - constant pressure calculation                                *
*  conjugate    - use conjugate gradients minimiser                            *
********************************************************************************

  Job Started  at 11:12.03 29th May        2024                               

  Number of CPUs =     1


  Total number of configurations input =      1

********************************************************************************
*  Input for Configuration =   1                                               *
********************************************************************************

  Formula = Ti4O8                                                       

  Number of irreducible atoms/shells =      12


  Total number atoms/shells =      12

  Dimensionality = 3               :  Bulk   



  Cartesian lattice vectors (Angstroms) :

        5.367875    0.652833   -0.086352
       -0.689063    5.682481   -0.361177
        0.591005   -0.061984    4.329125

  Cell parameters (Angstroms/Degrees):

  a =       5.4081    alpha =  95.3184
  b =       5.7355    beta  =  83.2976
  c =       4.3697    gamma =  89.9222

  Initial cell volume =         134.024851 Angs**3

  Temperature of configuration =   0.00     K 

  Pressure of configuration =         0.000 GPa 

  Fractional coordinates of asymmetric unit :

--------------------------------------------------------------------------------
   No.  Atomic       x           y          z         Charge      Occupancy
        Label      (Frac)      (Frac)     (Frac)        (e)         (Frac)  
--------------------------------------------------------------------------------
      1 Ti    c    0.857932    0.000099    0.329457     2.19600    1.000000    
      2 Ti    c    0.408482 *  0.449548 *  0.329456 *   2.19600    1.000000    
      3 Ti    c    0.456999 *  0.076891 *  0.665291 *   2.19600    1.000000    
      4 Ti    c    0.124406 *  0.871516 *  0.782015 *   2.19600    1.000000    
      5 O     c    0.554513 *  0.303518 *  0.026038 *  -1.09800    1.000000    
      6 O     c    0.105061 *  0.595579 *  0.183427 *  -1.09800    1.000000    
      7 O     c    0.554510 *  0.752969 *  0.183430 *  -1.09800    1.000000    
      8 O     c    0.105064 *  0.146129 *  0.026038 *  -1.09800    1.000000    
      9 O     c    0.635802 *  0.752226 *  0.627615 *  -1.09800    1.000000    
     10 O     c    0.331864 *  0.302776 *  0.845679 *  -1.09800    1.000000    
     11 O     c    0.843260 *  0.422066 *  0.691279 *  -1.09800    1.000000    
     12 O     c    0.781313 *  0.150431 *  0.396227 *  -1.09800    1.000000    
--------------------------------------------------------------------------------



********************************************************************************
*  General input information                                                   *
********************************************************************************

  Species output for all configurations : 

--------------------------------------------------------------------------------
  Species    Type    Atomic    Atomic    Charge       Radii (Angs)     Library
                     Number     Mass       (e)     Cova   Ionic  VDW   Symbol
--------------------------------------------------------------------------------
    Ti       Core       22      47.88   2.196000   1.470  0.000  2.190          
    O        Core        8      16.00  -1.098000   0.730  0.000  1.360          
--------------------------------------------------------------------------------


  Lattice summation method               =    Ewald          (3-D)
                                         =    Parry          (2-D)
                                         =    Saunders et al (1-D)
  Accuracy factor for lattice sums       =   12.000


  Analytic derivatives to be used

  Time limit = Infinity

  Maximum range for interatomic potentials =    100000.000000 Angstroms

  General interatomic potentials :

--------------------------------------------------------------------------------
Atom  Types   Potential      Parameter       Value         Units   Cutoffs(Ang)
  1     2                                                            Min /  Max 
--------------------------------------------------------------------------------
Ti   c Ti   c Buckingham    Buckingham A     31120.100    eV        0.000 15.000
                            Buckingham rho  0.15400000    Ang       
                            Buckingham C     5.2500000    eV*Ang^6  
--------------------------------------------------------------------------------
O    c O    c Buckingham    Buckingham A     11782.700    eV        0.000 15.000
                            Buckingham rho  0.23400000    Ang       
                            Buckingham C     30.220000    eV*Ang^6  
--------------------------------------------------------------------------------
O    c Ti   c Buckingham    Buckingham A     16957.500    eV        0.000 15.000
                            Buckingham rho  0.19400000    Ang       
                            Buckingham C     12.590000    eV*Ang^6  
--------------------------------------------------------------------------------
Ti   c Ti   c Lennard       Lennard-Jones A  1.0000000    eV*Ang^m  0.000 15.000
                            Lennard-Jones B  0.0000000    eV*Ang^n  
                            Exponent m        12          None
                            Exponent n         6          None
--------------------------------------------------------------------------------
O    c O    c Lennard       Lennard-Jones A  1.0000000    eV*Ang^m  0.000 15.000
                            Lennard-Jones B  0.0000000    eV*Ang^n  
                            Exponent m        12          None
                            Exponent n         6          None
--------------------------------------------------------------------------------
O    c Ti   c Lennard       Lennard-Jones A  1.0000000    eV*Ang^m  0.000 15.000
                            Lennard-Jones B  0.0000000    eV*Ang^n  
                            Exponent m        12          None
                            Exponent n         6          None
--------------------------------------------------------------------------------

********************************************************************************
*  Output for configuration   1                                                *
********************************************************************************


  Components of energy : 

--------------------------------------------------------------------------------
  Interatomic potentials     =         144.05066856 eV    
  Monopole - monopole (real) =         -47.26920525 eV    
  Monopole - monopole (recip)=         -91.75114877 eV    
  Monopole - monopole (total)=        -139.02035402 eV    
--------------------------------------------------------------------------------
  Total lattice energy       =           5.03031454 eV    
--------------------------------------------------------------------------------
  Total lattice energy       =             485.3485 kJ/(mole unit cells)
--------------------------------------------------------------------------------


  Number of variables =       39

  Maximum number of calculations  =          1000
  Maximum Hessian update interval =            10
  Maximum step size               =   1.000000000
  Maximum parameter tolerance     =   0.000010000
  Maximum function  tolerance     =   0.000010000
  Maximum gradient  tolerance     =   0.001000000
  Maximum gradient  component     =   0.010000000

  Symmetry not applied to optimisation

  Cell parameters to be optimised using strains

  Conjugate gradient optimiser to be used

  Lower half triangular hessian to be used

  Minimiser to switch to BFGS with exact hessian
  When gradient norm is less than     0.500000

  Start of bulk optimisation :

  Cycle:      0 Energy:         5.030315  Gnorm:     71.635142  CPU:    0.024
  Cycle:      1 Energy:       -86.913104  Gnorm:     11.599735  CPU:    0.055
  Cycle:      2 Energy:      -112.562846  Gnorm:      6.524339  CPU:    0.090
  Cycle:      3 Energy:      -129.156284  Gnorm:      4.782323  CPU:    0.128
  Cycle:      4 Energy:      -136.905388  Gnorm:      2.948931  CPU:    0.162
  Cycle:      5 Energy:      -139.568950  Gnorm:      2.006178  CPU:    0.191
  Cycle:      6 Energy:      -141.540901  Gnorm:      1.602028  CPU:    0.221
  Cycle:      7 Energy:      -143.798391  Gnorm:      1.293074  CPU:    0.252
  Cycle:      8 Energy:      -145.205728  Gnorm:      1.192885  CPU:    0.282
  Cycle:      9 Energy:      -145.979114  Gnorm:      0.821284  CPU:    0.307
  Cycle:     10 Energy:      -146.619938  Gnorm:      0.847835  CPU:    0.337
  Cycle:     11 Energy:      -147.133218  Gnorm:      0.825229  CPU:    0.362
  Cycle:     12 Energy:      -147.819072  Gnorm:      0.829916  CPU:    0.393
  Cycle:     13 Energy:      -148.943882  Gnorm:      1.024867  CPU:    0.424
  Cycle:     14 Energy:      -150.130376  Gnorm:      1.212825  CPU:    0.446
  Cycle:     15 Energy:      -150.665284  Gnorm:      1.090550  CPU:    0.472
  Cycle:     16 Energy:      -151.639661  Gnorm:      0.570447  CPU:    0.498
  Cycle:     17 Energy:      -152.135861  Gnorm:      0.432449  CPU:    0.529
  ** Hessian calculated **
  Cycle:     18 Energy:      -152.332858  Gnorm:      0.392452  CPU:    0.594
  ** Hessian calculated **
  Cycle:     19 Energy:      -152.582286  Gnorm:      0.324687  CPU:    0.659
  Cycle:     20 Energy:      -152.824925  Gnorm:      0.416601  CPU:    0.690
  Cycle:     21 Energy:      -153.024051  Gnorm:      0.438245  CPU:    0.717
  Cycle:     22 Energy:      -153.196619  Gnorm:      0.281538  CPU:    0.743
  Cycle:     23 Energy:      -153.275451  Gnorm:      0.218877  CPU:    0.769
  Cycle:     24 Energy:      -153.388688  Gnorm:      0.270085  CPU:    0.801
  Cycle:     25 Energy:      -153.475250  Gnorm:      0.237514  CPU:    0.833
  Cycle:     26 Energy:      -153.529995  Gnorm:      0.143590  CPU:    0.859
  Cycle:     27 Energy:      -153.573155  Gnorm:      0.137827  CPU:    0.886
  Cycle:     28 Energy:      -153.620742  Gnorm:      0.176595  CPU:    0.918
  ** Hessian calculated **
  Cycle:     29 Energy:      -153.668673  Gnorm:      0.112526  CPU:    0.991
  ** Hessian calculated **
  Cycle:     30 Energy:      -153.682123  Gnorm:      0.069196  CPU:    1.052
  Cycle:     31 Energy:      -153.690395  Gnorm:      0.066556  CPU:    1.085
  Cycle:     32 Energy:      -153.701898  Gnorm:      0.097294  CPU:    1.118
  Cycle:     33 Energy:      -153.740453  Gnorm:      0.170482  CPU:    1.157
  Cycle:     34 Energy:      -153.872654  Gnorm:      0.295815  CPU:    1.203
  Cycle:     35 Energy:      -153.918508  Gnorm:      0.384152  CPU:    1.230
  Cycle:     36 Energy:      -154.100167  Gnorm:      0.421968  CPU:    1.264
  Cycle:     37 Energy:      -154.540757  Gnorm:      0.757940  CPU:    1.298
  Cycle:     38 Energy:      -154.702231  Gnorm:      0.738851  CPU:    1.326
  Cycle:     39 Energy:      -155.467475  Gnorm:      0.499660  CPU:    1.361
  ** Hessian calculated **
  Cycle:     40 Energy:      -155.748969  Gnorm:      0.303213  CPU:    1.429
  Cycle:     41 Energy:      -156.309930  Gnorm:      0.577427  CPU:    1.471
  Cycle:     42 Energy:      -156.568411  Gnorm:      0.539462  CPU:    1.501
  Cycle:     43 Energy:      -156.932020  Gnorm:      0.234855  CPU:    1.536
  Cycle:     44 Energy:      -157.014793  Gnorm:      0.196219  CPU:    1.566
  Cycle:     45 Energy:      -157.067036  Gnorm:      0.155134  CPU:    1.596
  Cycle:     46 Energy:      -157.118373  Gnorm:      0.146794  CPU:    1.632
  Cycle:     47 Energy:      -157.170728  Gnorm:      0.150037  CPU:    1.668
  Cycle:     48 Energy:      -157.220970  Gnorm:      0.122274  CPU:    1.706
  Cycle:     49 Energy:      -157.249482  Gnorm:      0.088523  CPU:    1.735
  ** Hessian calculated **
  Cycle:     50 Energy:      -157.285977  Gnorm:      0.053556  CPU:    1.814
  Cycle:     51 Energy:      -157.400019  Gnorm:      0.362971  CPU:    1.859
  Cycle:     52 Energy:      -157.420065  Gnorm:      0.283899  CPU:    1.896
  ** Hessian calculated **
  Cycle:     53 Energy:      -157.528748  Gnorm:      0.177517  CPU:    1.967
  Cycle:     54 Energy:      -157.664488  Gnorm:      0.272022  CPU:    1.999
  Cycle:     55 Energy:      -157.809517  Gnorm:      0.211948  CPU:    2.030
  Cycle:     56 Energy:      -157.932108  Gnorm:      0.191937  CPU:    2.056
  Cycle:     57 Energy:      -158.014158  Gnorm:      0.152563  CPU:    2.088
  Cycle:     58 Energy:      -158.070902  Gnorm:      0.139143  CPU:    2.119
  Cycle:     59 Energy:      -158.116896  Gnorm:      0.145174  CPU:    2.143
  Cycle:     60 Energy:      -158.192753  Gnorm:      0.226580  CPU:    2.170
  Cycle:     61 Energy:      -158.350019  Gnorm:      0.300032  CPU:    2.198
  Cycle:     62 Energy:      -158.539156  Gnorm:      0.216428  CPU:    2.225
  ** Hessian calculated **
  Cycle:     63 Energy:      -158.982078  Gnorm:      0.172172  CPU:    2.296
  Cycle:     64 Energy:      -159.049629  Gnorm:      0.080050  CPU:    2.319
  Cycle:     65 Energy:      -159.060025  Gnorm:      0.019953  CPU:    2.341
  Cycle:     66 Energy:      -159.060799  Gnorm:      0.006419  CPU:    2.368
  Cycle:     67 Energy:      -159.060895  Gnorm:      0.002420  CPU:    2.389
  Cycle:     68 Energy:      -159.060908  Gnorm:      0.000843  CPU:    2.411


  **** Optimisation achieved ****


  Final energy =    -159.06090965 eV      
  Final Gnorm  =       0.00028604

  Components of energy : 

--------------------------------------------------------------------------------
  Interatomic potentials     =          12.29046982 eV    
  Monopole - monopole (real) =         -67.80797186 eV    
  Monopole - monopole (recip)=        -103.54340761 eV    
  Monopole - monopole (total)=        -171.35137947 eV    
--------------------------------------------------------------------------------
  Total lattice energy       =        -159.06090965 eV    
--------------------------------------------------------------------------------
  Total lattice energy       =          -15346.9463 kJ/(mole unit cells)
--------------------------------------------------------------------------------

  Final fractional coordinates of atoms :

--------------------------------------------------------------------------------
   No.  Atomic        x           y          z          Radius
        Label       (Frac)      (Frac)     (Frac)       (Angs) 
--------------------------------------------------------------------------------
     1  Ti    c     0.857932    0.000099    0.329457    0.000000
     2  Ti    c     0.357924    0.500100    0.329451    0.000000
     3  Ti    c     0.357923    0.175050    0.829452    0.000000
     4  Ti    c     0.857929    0.675049    0.829459    0.000000
     5  O     c     0.131956    0.451471    0.996907    0.000000
     6  O     c     0.083895    0.723678    0.496908    0.000000
     7  O     c     0.631969    0.723668    0.161992    0.000000
     8  O     c     0.083904    0.951471    0.996910    0.000000
     9  O     c     0.631976    0.951481    0.662011    0.000000
    10  O     c     0.131958    0.223678    0.496907    0.000000
    11  O     c     0.583893    0.451479    0.661992    0.000000
    12  O     c     0.583888    0.223670    0.162002    0.000000
--------------------------------------------------------------------------------

  Final Cartesian lattice vectors (Angstroms) :

        4.485216    0.520712   -0.249109
       -0.627809    5.340534   -0.141218
        0.255028    0.160295    4.926490


  Final cell parameters and derivatives :

--------------------------------------------------------------------------------
       a            4.522207 Angstrom     dE/de1(xx)    -0.001969 eV/strain
       b            5.379163 Angstrom     dE/de2(yy)    -0.002620 eV/strain
       c            4.935690 Angstrom     dE/de3(zz)    -0.000294 eV/strain
       alpha       89.999478 Degrees      dE/de4(yz)     0.000965 eV/strain
       beta        89.999777 Degrees      dE/de5(xz)     0.000367 eV/strain
       gamma       89.999529 Degrees      dE/de6(xy)     0.001682 eV/strain
--------------------------------------------------------------------------------

  Primitive cell volume =           120.064046 Angs**3

  Density of cell =      4.419174 g/cm**3

  Non-primitive cell volume =           120.064046 Angs**3


  Final internal derivatives :

--------------------------------------------------------------------------------
   No.  Atomic          a             b             c           Radius
        Label          (eV)          (eV)          (eV)        (eV/Angs)
--------------------------------------------------------------------------------
      1 Ti    c       0.000000      0.000000      0.000000      0.000000
      2 Ti    c      -0.001113     -0.000125      0.001126      0.000000
      3 Ti    c      -0.002576     -0.001086     -0.000322      0.000000
      4 Ti    c       0.000388     -0.000202      0.004362      0.000000
      5 O     c      -0.001174      0.000862     -0.000231      0.000000
      6 O     c      -0.001939      0.001005     -0.000250      0.000000
      7 O     c       0.002914     -0.001592     -0.005683      0.000000
      8 O     c       0.000527      0.000566     -0.001055      0.000000
      9 O     c       0.003325      0.000152      0.002506      0.000000
     10 O     c      -0.000177      0.000333     -0.000500      0.000000
     11 O     c      -0.000316      0.000284     -0.002811      0.000000
     12 O     c      -0.001398     -0.000157      0.000454      0.000000
--------------------------------------------------------------------------------
  Maximum abs         0.003325      0.001592      0.005683      0.000000
--------------------------------------------------------------------------------


  Time to end of optimisation =       2.4342 seconds


  Peak dynamic memory used =       1.84 MB 


  Timing analysis for GULP :

--------------------------------------------------------------------------------
  Task / Subroutine                                          Time (Seconds)
--------------------------------------------------------------------------------
  Calculation of reciprocal space energy and derivatives          0.0979
  Calculation of real space energy and derivatives                2.3115
  Calculation and manipulation of Hessian matrix                  0.0009
  Calculation of matrix inversion                                 0.0015
  Global summation overhead                                       0.0004
--------------------------------------------------------------------------------
  Total CPU time                                                  2.4342
--------------------------------------------------------------------------------


  Job Finished at 11:12.05 29th May        2024                               

