********************************************************************************
*                       GENERAL UTILITY LATTICE PROGRAM                        *
*                                 Julian Gale                                  *
*                       Curtin Institute for Computation                       *
*                    School of Molecular and Life Sciences                     *
*                    Curtin University, Western Australia                      *
********************************************************************************
* Version = 6.0.0 * Last modified =  12th July 2021                            *
********************************************************************************
*  optimise     - perform optimisation run                                     *
*  conp         - constant pressure calculation                                *
*  conjugate    - use conjugate gradients minimiser                            *
********************************************************************************

  Job Started  at 11:11.48 29th May        2024                               

  Number of CPUs =     1


  Total number of configurations input =      1

********************************************************************************
*  Input for Configuration =   1                                               *
********************************************************************************

  Formula = Ti4O8                                                       

  Number of irreducible atoms/shells =      12


  Total number atoms/shells =      12

  Dimensionality = 3               :  Bulk   



  Cartesian lattice vectors (Angstroms) :

        5.933641    0.616877    0.200364
       -0.636522    5.805613   -0.404396
        0.579205    0.103891    3.863458

  Cell parameters (Angstroms/Degrees):

  a =       5.9690    alpha =  93.3273
  b =       5.8544    beta  =  79.4401
  c =       3.9080    gamma =  90.4535

  Initial cell volume =         134.024851 Angs**3

  Temperature of configuration =   0.00     K 

  Pressure of configuration =         0.000 GPa 

  Fractional coordinates of asymmetric unit :

--------------------------------------------------------------------------------
   No.  Atomic       x           y          z         Charge      Occupancy
        Label      (Frac)      (Frac)     (Frac)        (e)         (Frac)  
--------------------------------------------------------------------------------
      1 Ti    c    0.067605    0.830409    0.332748     2.19600    1.000000    
      2 Ti    c    0.494671 *  0.830407 *  0.332749 *   2.19600    1.000000    
      3 Ti    c    0.559735 *  0.158757 *  0.636681 *   2.19600    1.000000    
      4 Ti    c    0.118433 *  0.313294 *  0.636684 *   2.19600    1.000000    
      5 O     c    0.235626 *  0.374870 *  0.164728 *  -1.09800    1.000000    
      6 O     c    0.494672 *  0.206849 *  0.332747 *  -1.09800    1.000000    
      7 O     c    0.326650 *  0.830407 *  0.073704 *  -1.09800    1.000000    
      8 O     c    0.662691 *  0.830407 *  0.591795 *  -1.09800    1.000000    
      9 O     c    0.782189 *  0.374870 *  0.500767 *  -1.09800    1.000000    
     10 O     c    0.494672 *  0.542890 *  0.332747 *  -1.09800    1.000000    
     11 O     c    0.416354 *  0.456676 *  0.780063 *  -1.09800    1.000000    
     12 O     c    0.857656 *  0.015374 *  0.780062 *  -1.09800    1.000000    
--------------------------------------------------------------------------------



********************************************************************************
*  General input information                                                   *
********************************************************************************

  Species output for all configurations : 

--------------------------------------------------------------------------------
  Species    Type    Atomic    Atomic    Charge       Radii (Angs)     Library
                     Number     Mass       (e)     Cova   Ionic  VDW   Symbol
--------------------------------------------------------------------------------
    Ti       Core       22      47.88   2.196000   1.470  0.000  2.190          
    O        Core        8      16.00  -1.098000   0.730  0.000  1.360          
--------------------------------------------------------------------------------


  Lattice summation method               =    Ewald          (3-D)
                                         =    Parry          (2-D)
                                         =    Saunders et al (1-D)
  Accuracy factor for lattice sums       =   12.000


  Analytic derivatives to be used

  Time limit = Infinity

  Maximum range for interatomic potentials =    100000.000000 Angstroms

  General interatomic potentials :

--------------------------------------------------------------------------------
Atom  Types   Potential      Parameter       Value         Units   Cutoffs(Ang)
  1     2                                                            Min /  Max 
--------------------------------------------------------------------------------
Ti   c Ti   c Buckingham    Buckingham A     31120.100    eV        0.000 15.000
                            Buckingham rho  0.15400000    Ang       
                            Buckingham C     5.2500000    eV*Ang^6  
--------------------------------------------------------------------------------
O    c O    c Buckingham    Buckingham A     11782.700    eV        0.000 15.000
                            Buckingham rho  0.23400000    Ang       
                            Buckingham C     30.220000    eV*Ang^6  
--------------------------------------------------------------------------------
O    c Ti   c Buckingham    Buckingham A     16957.500    eV        0.000 15.000
                            Buckingham rho  0.19400000    Ang       
                            Buckingham C     12.590000    eV*Ang^6  
--------------------------------------------------------------------------------
Ti   c Ti   c Lennard       Lennard-Jones A  1.0000000    eV*Ang^m  0.000 15.000
                            Lennard-Jones B  0.0000000    eV*Ang^n  
                            Exponent m        12          None
                            Exponent n         6          None
--------------------------------------------------------------------------------
O    c O    c Lennard       Lennard-Jones A  1.0000000    eV*Ang^m  0.000 15.000
                            Lennard-Jones B  0.0000000    eV*Ang^n  
                            Exponent m        12          None
                            Exponent n         6          None
--------------------------------------------------------------------------------
O    c Ti   c Lennard       Lennard-Jones A  1.0000000    eV*Ang^m  0.000 15.000
                            Lennard-Jones B  0.0000000    eV*Ang^n  
                            Exponent m        12          None
                            Exponent n         6          None
--------------------------------------------------------------------------------

********************************************************************************
*  Output for configuration   1                                                *
********************************************************************************


  Components of energy : 

--------------------------------------------------------------------------------
  Interatomic potentials     =          52.51182478 eV    
  Monopole - monopole (real) =         -48.32717281 eV    
  Monopole - monopole (recip)=         -93.05620628 eV    
  Monopole - monopole (total)=        -141.38337909 eV    
--------------------------------------------------------------------------------
  Total lattice energy       =         -88.87155431 eV    
--------------------------------------------------------------------------------
  Total lattice energy       =           -8574.7465 kJ/(mole unit cells)
--------------------------------------------------------------------------------


  Number of variables =       39

  Maximum number of calculations  =          1000
  Maximum Hessian update interval =            10
  Maximum step size               =   1.000000000
  Maximum parameter tolerance     =   0.000010000
  Maximum function  tolerance     =   0.000010000
  Maximum gradient  tolerance     =   0.001000000
  Maximum gradient  component     =   0.010000000

  Symmetry not applied to optimisation

  Cell parameters to be optimised using strains

  Conjugate gradient optimiser to be used

  Lower half triangular hessian to be used

  Minimiser to switch to BFGS with exact hessian
  When gradient norm is less than     0.500000

  Start of bulk optimisation :

  Cycle:      0 Energy:       -88.871554  Gnorm:     14.114233  CPU:    0.022
  Cycle:      1 Energy:      -119.653022  Gnorm:      6.264308  CPU:    0.045
  Cycle:      2 Energy:      -128.842982  Gnorm:      3.456957  CPU:    0.071
  Cycle:      3 Energy:      -135.421825  Gnorm:      2.001759  CPU:    0.098
  Cycle:      4 Energy:      -136.861953  Gnorm:      2.039882  CPU:    0.119
  Cycle:      5 Energy:      -138.746501  Gnorm:      1.506752  CPU:    0.144
  Cycle:      6 Energy:      -141.222008  Gnorm:      1.702354  CPU:    0.168
  Cycle:      7 Energy:      -142.668423  Gnorm:      1.557784  CPU:    0.189
  Cycle:      8 Energy:      -144.580738  Gnorm:      1.996105  CPU:    0.214
  Cycle:      9 Energy:      -146.056368  Gnorm:      1.477014  CPU:    0.234
  Cycle:     10 Energy:      -147.173902  Gnorm:      0.789783  CPU:    0.259
  Cycle:     11 Energy:      -148.206980  Gnorm:      1.201924  CPU:    0.285
  Cycle:     12 Energy:      -148.936597  Gnorm:      0.773418  CPU:    0.306
  Cycle:     13 Energy:      -149.260593  Gnorm:      0.687307  CPU:    0.327
  Cycle:     14 Energy:      -149.816575  Gnorm:      0.716989  CPU:    0.352
  Cycle:     15 Energy:      -150.573870  Gnorm:      0.831747  CPU:    0.378
  Cycle:     16 Energy:      -151.075677  Gnorm:      0.708237  CPU:    0.399
  Cycle:     17 Energy:      -151.549130  Gnorm:      0.642350  CPU:    0.424
  Cycle:     18 Energy:      -151.757336  Gnorm:      0.561916  CPU:    0.446
  Cycle:     19 Energy:      -151.993608  Gnorm:      0.474104  CPU:    0.472
  ** Hessian calculated **
  Cycle:     20 Energy:      -152.429756  Gnorm:      0.561654  CPU:    0.532
  Cycle:     21 Energy:      -152.677587  Gnorm:      0.397504  CPU:    0.559
  Cycle:     22 Energy:      -152.944792  Gnorm:      0.361450  CPU:    0.586
  Cycle:     23 Energy:      -153.060289  Gnorm:      0.265169  CPU:    0.608
  Cycle:     24 Energy:      -153.163102  Gnorm:      0.270517  CPU:    0.636
  Cycle:     25 Energy:      -153.261808  Gnorm:      0.276784  CPU:    0.663
  Cycle:     26 Energy:      -153.372150  Gnorm:      0.251591  CPU:    0.691
  Cycle:     27 Energy:      -153.477751  Gnorm:      0.311324  CPU:    0.719
  Cycle:     28 Energy:      -153.554674  Gnorm:      0.289814  CPU:    0.742
  Cycle:     29 Energy:      -153.675139  Gnorm:      0.240732  CPU:    0.765
  ** Hessian calculated **
  Cycle:     30 Energy:      -153.758604  Gnorm:      0.243368  CPU:    0.823
  Cycle:     31 Energy:      -153.879802  Gnorm:      0.366293  CPU:    0.852
  Cycle:     32 Energy:      -154.410925  Gnorm:      0.568264  CPU:    0.893
  Cycle:     33 Energy:      -154.502416  Gnorm:      0.602357  CPU:    0.929
  Cycle:     34 Energy:      -154.978019  Gnorm:      0.641467  CPU:    0.964
  Cycle:     35 Energy:      -155.266986  Gnorm:      0.320691  CPU:    0.993
  Cycle:     36 Energy:      -155.617615  Gnorm:      0.396260  CPU:    1.028
  Cycle:     37 Energy:      -155.998259  Gnorm:      0.434319  CPU:    1.080
  Cycle:     38 Energy:      -156.281026  Gnorm:      0.541210  CPU:    1.117
  Cycle:     39 Energy:      -156.573467  Gnorm:      0.338599  CPU:    1.154
  ** Hessian calculated **
  Cycle:     40 Energy:      -156.927618  Gnorm:      0.276918  CPU:    1.230
  Cycle:     41 Energy:      -157.006731  Gnorm:      0.053348  CPU:    1.276
  Cycle:     42 Energy:      -157.011168  Gnorm:      0.018884  CPU:    1.313
  Cycle:     43 Energy:      -157.012490  Gnorm:      0.011120  CPU:    1.350
  Cycle:     44 Energy:      -157.012643  Gnorm:      0.002529  CPU:    1.397
  Cycle:     45 Energy:      -157.012653  Gnorm:      0.000648  CPU:    1.443
  Cycle:     46 Energy:      -157.012654  Gnorm:      0.000540  CPU:    1.497


  **** Optimisation achieved ****


  Final energy =    -157.01265467 eV      
  Final Gnorm  =       0.00010993

  Components of energy : 

--------------------------------------------------------------------------------
  Interatomic potentials     =          12.80673256 eV    
  Monopole - monopole (real) =         -71.84381143 eV    
  Monopole - monopole (recip)=         -97.97557580 eV    
  Monopole - monopole (total)=        -169.81938723 eV    
--------------------------------------------------------------------------------
  Total lattice energy       =        -157.01265467 eV    
--------------------------------------------------------------------------------
  Total lattice energy       =          -15149.3210 kJ/(mole unit cells)
--------------------------------------------------------------------------------

  Final fractional coordinates of atoms :

--------------------------------------------------------------------------------
   No.  Atomic        x           y          z          Radius
        Label       (Frac)      (Frac)     (Frac)       (Angs) 
--------------------------------------------------------------------------------
     1  Ti    c     0.067605    0.830409    0.332748    0.000000
     2  Ti    c     0.651747    0.855652    0.137454    0.000000
     3  Ti    c     0.652367    0.443148    0.490483    0.000000
     4  Ti    c     0.066984    0.242916    0.979715    0.000000
     5  O     c     0.061748    0.151429    0.449142    0.000000
     6  O     c     0.741772    0.164638    0.211163    0.000000
     7  O     c     0.359675    0.843029    0.235101    0.000000
     8  O     c     0.717965    0.802474    0.569975    0.000000
     9  O     c     0.977580    0.521422    0.259049    0.000000
    10  O     c     0.657603    0.534629    0.021058    0.000000
    11  O     c     0.359673    0.343035    0.735093    0.000000
    12  O     c     0.001384    0.883585    0.900227    0.000000
--------------------------------------------------------------------------------

  Final Cartesian lattice vectors (Angstroms) :

        6.739090   -0.006769    0.951463
       -1.303463    6.113654   -0.802271
        1.017450   -0.131747    3.577362


  Final cell parameters and derivatives :

--------------------------------------------------------------------------------
       a            6.805929 Angstrom     dE/de1(xx)     0.000578 eV/strain
       b            6.302335 Angstrom     dE/de2(yy)    -0.000236 eV/strain
       c            3.721570 Angstrom     dE/de3(zz)    -0.000625 eV/strain
       alpha      102.312848 Degrees      dE/de4(yz)     0.000274 eV/strain
       beta        66.101036 Degrees      dE/de5(xz)    -0.000060 eV/strain
       gamma      102.917745 Degrees      dE/de6(xy)    -0.000004 eV/strain
--------------------------------------------------------------------------------

  Primitive cell volume =           140.895643 Angs**3

  Density of cell =      3.765793 g/cm**3

  Non-primitive cell volume =           140.895643 Angs**3


  Final internal derivatives :

--------------------------------------------------------------------------------
   No.  Atomic          a             b             c           Radius
        Label          (eV)          (eV)          (eV)        (eV/Angs)
--------------------------------------------------------------------------------
      1 Ti    c       0.000000      0.000000      0.000000      0.000000
      2 Ti    c       0.000735      0.000087      0.000023      0.000000
      3 Ti    c       0.001234      0.000470     -0.000708      0.000000
      4 Ti    c      -0.001496      0.001163     -0.000479      0.000000
      5 O     c       0.000375     -0.000177      0.000248      0.000000
      6 O     c       0.001021     -0.000070      0.001213      0.000000
      7 O     c      -0.000444     -0.000457     -0.000118      0.000000
      8 O     c      -0.000188     -0.000750     -0.000306      0.000000
      9 O     c       0.000876     -0.001433     -0.000300      0.000000
     10 O     c      -0.000016     -0.000131      0.000397      0.000000
     11 O     c      -0.001636      0.000108     -0.000413      0.000000
     12 O     c      -0.000471      0.000937     -0.000044      0.000000
--------------------------------------------------------------------------------
  Maximum abs         0.001636      0.001433      0.001213      0.000000
--------------------------------------------------------------------------------


  Time to end of optimisation =       1.5352 seconds


  Peak dynamic memory used =       1.84 MB 


  Timing analysis for GULP :

--------------------------------------------------------------------------------
  Task / Subroutine                                          Time (Seconds)
--------------------------------------------------------------------------------
  Calculation of reciprocal space energy and derivatives          0.0614
  Calculation of real space energy and derivatives                1.4536
  Calculation and manipulation of Hessian matrix                  0.0004
  Calculation of matrix inversion                                 0.0006
  Global summation overhead                                       0.0003
--------------------------------------------------------------------------------
  Total CPU time                                                  1.5353
--------------------------------------------------------------------------------


  Job Finished at 11:11.50 29th May        2024                               

