********************************************************************************
*                       GENERAL UTILITY LATTICE PROGRAM                        *
*                                 Julian Gale                                  *
*                       Curtin Institute for Computation                       *
*                    School of Molecular and Life Sciences                     *
*                    Curtin University, Western Australia                      *
********************************************************************************
* Version = 6.0.0 * Last modified =  12th July 2021                            *
********************************************************************************
*  optimise     - perform optimisation run                                     *
*  conp         - constant pressure calculation                                *
*  conjugate    - use conjugate gradients minimiser                            *
********************************************************************************

  Job Started  at 11:11.15 29th May        2024                               

  Number of CPUs =     1


  Total number of configurations input =      1

********************************************************************************
*  Input for Configuration =   1                                               *
********************************************************************************

  Formula = Ti4O8                                                       

  Number of irreducible atoms/shells =      12


  Total number atoms/shells =      12

  Dimensionality = 3               :  Bulk   



  Cartesian lattice vectors (Angstroms) :

        6.062745    0.018750    0.378032
       -0.017456    7.058074    0.029561
        0.755065   -0.011666    3.179054

  Cell parameters (Angstroms/Degrees):

  a =       6.0745    alpha =  90.0038
  b =       7.0582    beta  =  73.0720
  c =       3.2675    gamma =  89.9496

  Initial cell volume =         134.024851 Angs**3

  Temperature of configuration =   0.00     K 

  Pressure of configuration =         0.000 GPa 

  Fractional coordinates of asymmetric unit :

--------------------------------------------------------------------------------
   No.  Atomic       x           y          z         Charge      Occupancy
        Label      (Frac)      (Frac)     (Frac)        (e)         (Frac)  
--------------------------------------------------------------------------------
      1 Ti    c    0.094808    0.965621    0.397494     2.19600    1.000000    
      2 Ti    c    0.582344 *  0.965619 *  0.397495 *   2.19600    1.000000    
      3 Ti    c    0.800001 *  0.312507 *  0.964675 *   2.19600    1.000000    
      4 Ti    c    0.488705 *  0.952122 *  0.964688 *   2.19600    1.000000    
      5 O     c    0.286621 *  0.445580 *  0.205684 *  -1.09800    1.000000    
      6 O     c    0.582345 *  0.253768 *  0.397493 *  -1.09800    1.000000    
      7 O     c    0.390533 *  0.965619 *  0.101770 *  -1.09800    1.000000    
      8 O     c    0.582345 *  0.637391 *  0.397493 *  -1.09800    1.000000    
      9 O     c    0.800017 *  0.788133 *  0.964673 *  -1.09800    1.000000    
     10 O     c    0.312333 *  0.235652 *  0.964646 *  -1.09800    1.000000    
     11 O     c    0.312345 *  0.711277 *  0.964644 *  -1.09800    1.000000    
     12 O     c    0.488703 *  0.476489 *  0.964679 *  -1.09800    1.000000    
--------------------------------------------------------------------------------



********************************************************************************
*  General input information                                                   *
********************************************************************************

  Species output for all configurations : 

--------------------------------------------------------------------------------
  Species    Type    Atomic    Atomic    Charge       Radii (Angs)     Library
                     Number     Mass       (e)     Cova   Ionic  VDW   Symbol
--------------------------------------------------------------------------------
    Ti       Core       22      47.88   2.196000   1.470  0.000  2.190          
    O        Core        8      16.00  -1.098000   0.730  0.000  1.360          
--------------------------------------------------------------------------------


  Lattice summation method               =    Ewald          (3-D)
                                         =    Parry          (2-D)
                                         =    Saunders et al (1-D)
  Accuracy factor for lattice sums       =   12.000


  Analytic derivatives to be used

  Time limit = Infinity

  Maximum range for interatomic potentials =    100000.000000 Angstroms

  General interatomic potentials :

--------------------------------------------------------------------------------
Atom  Types   Potential      Parameter       Value         Units   Cutoffs(Ang)
  1     2                                                            Min /  Max 
--------------------------------------------------------------------------------
Ti   c Ti   c Buckingham    Buckingham A     31120.100    eV        0.000 15.000
                            Buckingham rho  0.15400000    Ang       
                            Buckingham C     5.2500000    eV*Ang^6  
--------------------------------------------------------------------------------
O    c O    c Buckingham    Buckingham A     11782.700    eV        0.000 15.000
                            Buckingham rho  0.23400000    Ang       
                            Buckingham C     30.220000    eV*Ang^6  
--------------------------------------------------------------------------------
O    c Ti   c Buckingham    Buckingham A     16957.500    eV        0.000 15.000
                            Buckingham rho  0.19400000    Ang       
                            Buckingham C     12.590000    eV*Ang^6  
--------------------------------------------------------------------------------
Ti   c Ti   c Lennard       Lennard-Jones A  1.0000000    eV*Ang^m  0.000 15.000
                            Lennard-Jones B  0.0000000    eV*Ang^n  
                            Exponent m        12          None
                            Exponent n         6          None
--------------------------------------------------------------------------------
O    c O    c Lennard       Lennard-Jones A  1.0000000    eV*Ang^m  0.000 15.000
                            Lennard-Jones B  0.0000000    eV*Ang^n  
                            Exponent m        12          None
                            Exponent n         6          None
--------------------------------------------------------------------------------
O    c Ti   c Lennard       Lennard-Jones A  1.0000000    eV*Ang^m  0.000 15.000
                            Lennard-Jones B  0.0000000    eV*Ang^n  
                            Exponent m        12          None
                            Exponent n         6          None
--------------------------------------------------------------------------------

********************************************************************************
*  Output for configuration   1                                                *
********************************************************************************


  Components of energy : 

--------------------------------------------------------------------------------
  Interatomic potentials     =         730.90903961 eV    
  Monopole - monopole (real) =         -23.66708590 eV    
  Monopole - monopole (recip)=         -61.60764666 eV    
  Monopole - monopole (total)=         -85.27473256 eV    
--------------------------------------------------------------------------------
  Total lattice energy       =         645.63430705 eV    
--------------------------------------------------------------------------------
  Total lattice energy       =           62293.8412 kJ/(mole unit cells)
--------------------------------------------------------------------------------


  Number of variables =       39

  Maximum number of calculations  =          1000
  Maximum Hessian update interval =            10
  Maximum step size               =   1.000000000
  Maximum parameter tolerance     =   0.000010000
  Maximum function  tolerance     =   0.000010000
  Maximum gradient  tolerance     =   0.001000000
  Maximum gradient  component     =   0.010000000

  Symmetry not applied to optimisation

  Cell parameters to be optimised using strains

  Conjugate gradient optimiser to be used

  Lower half triangular hessian to be used

  Minimiser to switch to BFGS with exact hessian
  When gradient norm is less than     0.500000

  Start of bulk optimisation :

  Cycle:      0 Energy:       645.634307  Gnorm:    933.123039  CPU:    0.022
  Cycle:      1 Energy:        28.127584  Gnorm:     36.391265  CPU:    0.051
  Cycle:      2 Energy:       -64.109703  Gnorm:     14.897704  CPU:    0.093
  Cycle:      3 Energy:       -96.766350  Gnorm:     10.654130  CPU:    0.113
  Cycle:      4 Energy:      -119.077638  Gnorm:      7.680553  CPU:    0.141
  Cycle:      5 Energy:      -133.088969  Gnorm:      5.345423  CPU:    0.173
  Cycle:      6 Energy:      -136.915904  Gnorm:      4.368429  CPU:    0.191
  Cycle:      7 Energy:      -140.638647  Gnorm:      2.497313  CPU:    0.214
  Cycle:      8 Energy:      -143.059474  Gnorm:      1.509556  CPU:    0.236
  Cycle:      9 Energy:      -144.830262  Gnorm:      2.095827  CPU:    0.260
  Cycle:     10 Energy:      -145.897027  Gnorm:      1.201861  CPU:    0.279
  Cycle:     11 Energy:      -147.232713  Gnorm:      1.845266  CPU:    0.303
  Cycle:     12 Energy:      -149.927544  Gnorm:      2.559124  CPU:    0.329
  Cycle:     13 Energy:      -150.980761  Gnorm:      1.179193  CPU:    0.356
  Cycle:     14 Energy:      -151.851220  Gnorm:      0.814996  CPU:    0.383
  Cycle:     15 Energy:      -152.330718  Gnorm:      0.573863  CPU:    0.409
  Cycle:     16 Energy:      -152.583568  Gnorm:      0.464382  CPU:    0.436
  ** Hessian calculated **
  Cycle:     17 Energy:      -153.009708  Gnorm:      0.271623  CPU:    0.506
  ** Hessian calculated **
  Cycle:     18 Energy:      -153.112184  Gnorm:      0.201192  CPU:    0.568
  ** Hessian calculated **
  Cycle:     19 Energy:      -153.371892  Gnorm:      0.145218  CPU:    0.637
  Cycle:     20 Energy:      -153.401443  Gnorm:      0.183902  CPU:    0.670
  ** Hessian calculated **
  Cycle:     21 Energy:      -153.510010  Gnorm:      0.195897  CPU:    0.724
  Cycle:     22 Energy:      -153.521002  Gnorm:      0.116067  CPU:    0.750
  Cycle:     23 Energy:      -153.535740  Gnorm:      0.055856  CPU:    0.772
  Cycle:     24 Energy:      -153.542645  Gnorm:      0.041566  CPU:    0.798
  Cycle:     25 Energy:      -153.549127  Gnorm:      0.079622  CPU:    0.825
  Cycle:     26 Energy:      -153.553702  Gnorm:      0.104250  CPU:    0.851
  Cycle:     27 Energy:      -153.559360  Gnorm:      0.062388  CPU:    0.873
  Cycle:     28 Energy:      -153.560050  Gnorm:      0.067529  CPU:    0.896
  ** Hessian calculated **
  Cycle:     29 Energy:      -153.564111  Gnorm:      0.034294  CPU:    0.952
  Cycle:     30 Energy:      -153.566059  Gnorm:      0.027804  CPU:    0.980
  Cycle:     31 Energy:      -153.567017  Gnorm:      0.022805  CPU:    1.002
  Cycle:     32 Energy:      -153.567813  Gnorm:      0.024483  CPU:    1.029
  Cycle:     33 Energy:      -153.568832  Gnorm:      0.033035  CPU:    1.056
  Cycle:     34 Energy:      -153.571683  Gnorm:      0.063767  CPU:    1.084
  Cycle:     35 Energy:      -153.588345  Gnorm:      0.097418  CPU:    1.127
  Cycle:     36 Energy:      -153.598528  Gnorm:      0.196177  CPU:    1.155
  ** Hessian calculated **
  Cycle:     37 Energy:      -153.646197  Gnorm:      0.146504  CPU:    1.218
  Cycle:     38 Energy:      -153.687789  Gnorm:      0.167461  CPU:    1.247
  Cycle:     39 Energy:      -153.745090  Gnorm:      0.193735  CPU:    1.276
  Cycle:     40 Energy:      -153.818585  Gnorm:      0.280100  CPU:    1.305
  Cycle:     41 Energy:      -154.055268  Gnorm:      0.439966  CPU:    1.334
  Cycle:     42 Energy:      -154.252685  Gnorm:      0.507303  CPU:    1.359
  Cycle:     43 Energy:      -154.410710  Gnorm:      0.451416  CPU:    1.384
  Cycle:     44 Energy:      -154.553119  Gnorm:      0.312033  CPU:    1.414
  Cycle:     45 Energy:      -154.742946  Gnorm:      0.387787  CPU:    1.445
  Cycle:     46 Energy:      -155.291047  Gnorm:      0.693037  CPU:    1.476
  ** Hessian calculated **
  Cycle:     47 Energy:      -155.581514  Gnorm:      0.591492  CPU:    1.554
  ** Hessian calculated **
  Cycle:     48 Energy:      -156.118572  Gnorm:      0.538724  CPU:    1.630
  Cycle:     49 Energy:      -156.592179  Gnorm:      0.708864  CPU:    1.661
  Cycle:     50 Energy:      -157.378688  Gnorm:      0.681655  CPU:    1.692
  Cycle:     51 Energy:      -157.718935  Gnorm:      0.579845  CPU:    1.717
  Cycle:     52 Energy:      -158.214315  Gnorm:      0.385690  CPU:    1.742
  Cycle:     53 Energy:      -158.399134  Gnorm:      0.360820  CPU:    1.767
  Cycle:     54 Energy:      -158.533836  Gnorm:      0.267732  CPU:    1.798
  Cycle:     55 Energy:      -158.636764  Gnorm:      0.223287  CPU:    1.823
  Cycle:     56 Energy:      -158.733672  Gnorm:      0.229787  CPU:    1.853
  Cycle:     57 Energy:      -158.808677  Gnorm:      0.207369  CPU:    1.879
  ** Hessian calculated **
  Cycle:     58 Energy:      -159.163787  Gnorm:      0.067169  CPU:    1.956
  Cycle:     59 Energy:      -159.200653  Gnorm:      0.026993  CPU:    1.981
  Cycle:     60 Energy:      -159.201374  Gnorm:      0.006078  CPU:    2.006
  Cycle:     61 Energy:      -159.201427  Gnorm:      0.001441  CPU:    2.031


  **** Optimisation achieved ****


  Final energy =    -159.20142948 eV      
  Final Gnorm  =       0.00033111

  Components of energy : 

--------------------------------------------------------------------------------
  Interatomic potentials     =          12.37907865 eV    
  Monopole - monopole (real) =         -68.43758522 eV    
  Monopole - monopole (recip)=        -103.14292291 eV    
  Monopole - monopole (total)=        -171.58050813 eV    
--------------------------------------------------------------------------------
  Total lattice energy       =        -159.20142948 eV    
--------------------------------------------------------------------------------
  Total lattice energy       =          -15360.5043 kJ/(mole unit cells)
--------------------------------------------------------------------------------

  Final fractional coordinates of atoms :

--------------------------------------------------------------------------------
   No.  Atomic        x           y          z          Radius
        Label       (Frac)      (Frac)     (Frac)       (Angs) 
--------------------------------------------------------------------------------
     1  Ti    c     0.094808    0.965621    0.397494    0.000000
     2  Ti    c     0.594797    0.965605    0.397499    0.000000
     3  Ti    c     0.094817    0.465620    0.897491    0.000000
     4  Ti    c     0.594813    0.465604    0.897485    0.000000
     5  O     c     0.291526    0.465606    0.200780    0.000000
     6  O     c     0.594805    0.268889    0.397493    0.000000
     7  O     c     0.398084    0.965610    0.094213    0.000000
     8  O     c     0.594802    0.662320    0.397501    0.000000
     9  O     c     0.791518    0.965595    0.700786    0.000000
    10  O     c     0.094799    0.162330    0.897503    0.000000
    11  O     c     0.094816    0.768900    0.897485    0.000000
    12  O     c     0.898099    0.465610    0.594212    0.000000
--------------------------------------------------------------------------------

  Final Cartesian lattice vectors (Angstroms) :

        7.004530   -0.008491    0.600882
        0.001032    6.353540    0.078780
        1.050401   -0.035116    2.819087


  Final cell parameters and derivatives :

--------------------------------------------------------------------------------
       a            7.030261 Angstrom     dE/de1(xx)    -0.002154 eV/strain
       b            6.354029 Angstrom     dE/de2(yy)     0.001355 eV/strain
       c            3.008625 Angstrom     dE/de3(zz)     0.000043 eV/strain
       alpha       89.999809 Degrees      dE/de4(yz)     0.000383 eV/strain
       beta        64.662321 Degrees      dE/de5(xz)     0.000809 eV/strain
       gamma       89.999212 Degrees      dE/de6(xy)     0.000505 eV/strain
--------------------------------------------------------------------------------

  Primitive cell volume =           121.467949 Angs**3

  Density of cell =      4.368098 g/cm**3

  Non-primitive cell volume =           121.467949 Angs**3


  Final internal derivatives :

--------------------------------------------------------------------------------
   No.  Atomic          a             b             c           Radius
        Label          (eV)          (eV)          (eV)        (eV/Angs)
--------------------------------------------------------------------------------
      1 Ti    c       0.000000      0.000000      0.000000      0.000000
      2 Ti    c      -0.005521      0.003042     -0.000671      0.000000
      3 Ti    c       0.003489      0.004444      0.000015      0.000000
      4 Ti    c      -0.000299     -0.001158     -0.000439      0.000000
      5 O     c      -0.001599     -0.000150      0.000070      0.000000
      6 O     c      -0.001794     -0.000701     -0.000342      0.000000
      7 O     c      -0.006202     -0.001732     -0.000098      0.000000
      8 O     c      -0.000050      0.000769      0.000373      0.000000
      9 O     c       0.001696     -0.003306      0.000666      0.000000
     10 O     c      -0.002103     -0.001373     -0.000111      0.000000
     11 O     c      -0.000095     -0.002468     -0.000418      0.000000
     12 O     c       0.002702     -0.001480      0.000740      0.000000
--------------------------------------------------------------------------------
  Maximum abs         0.006202      0.004444      0.000740      0.000000
--------------------------------------------------------------------------------


  Time to end of optimisation =       2.0561 seconds


  Peak dynamic memory used =       1.84 MB 


  Timing analysis for GULP :

--------------------------------------------------------------------------------
  Task / Subroutine                                          Time (Seconds)
--------------------------------------------------------------------------------
  Calculation of reciprocal space energy and derivatives          0.0914
  Calculation of real space energy and derivatives                1.9411
  Calculation and manipulation of Hessian matrix                  0.0010
  Calculation of matrix inversion                                 0.0017
  Global summation overhead                                       0.0004
--------------------------------------------------------------------------------
  Total CPU time                                                  2.0561
--------------------------------------------------------------------------------


  Job Finished at 11:11.17 29th May        2024                               

