********************************************************************************
*                       GENERAL UTILITY LATTICE PROGRAM                        *
*                                 Julian Gale                                  *
*                       Curtin Institute for Computation                       *
*                    School of Molecular and Life Sciences                     *
*                    Curtin University, Western Australia                      *
********************************************************************************
* Version = 6.0.0 * Last modified =  12th July 2021                            *
********************************************************************************
*  optimise     - perform optimisation run                                     *
*  conp         - constant pressure calculation                                *
*  conjugate    - use conjugate gradients minimiser                            *
********************************************************************************

  Job Started  at 11:11.36 29th May        2024                               

  Number of CPUs =     1


  Total number of configurations input =      1

********************************************************************************
*  Input for Configuration =   1                                               *
********************************************************************************

  Formula = Ti4O8                                                       

  Number of irreducible atoms/shells =      12


  Total number atoms/shells =      12

  Dimensionality = 3               :  Bulk   



  Cartesian lattice vectors (Angstroms) :

        5.735139   -0.687506    0.057245
       -1.531940    6.636329   -1.272754
        0.570004   -0.168150    3.646745

  Cell parameters (Angstroms/Degrees):

  a =       5.7765    alpha = 105.0106
  b =       6.9288    beta  =  80.3073
  c =       3.6949    gamma = 109.5927

  Initial cell volume =         134.024851 Angs**3

  Temperature of configuration =   0.00     K 

  Pressure of configuration =         0.000 GPa 

  Fractional coordinates of asymmetric unit :

--------------------------------------------------------------------------------
   No.  Atomic       x           y          z         Charge      Occupancy
        Label      (Frac)      (Frac)     (Frac)        (e)         (Frac)  
--------------------------------------------------------------------------------
      1 Ti    c    0.231129    0.106030    0.508000     2.19600    1.000000    
      2 Ti    c    0.677086 *  0.106028 *  0.508001 *   2.19600    1.000000    
      3 Ti    c    0.163280 *  0.920551 *  0.568345 *   2.19600    1.000000    
      4 Ti    c    0.337234 *  0.479119 *  0.725058 *   2.19600    1.000000    
      5 O     c    0.231129 *  0.281482 *  0.062045 *  -1.09800    1.000000    
      6 O     c    0.677087 *  0.376532 *  0.507999 *  -1.09800    1.000000    
      7 O     c    0.501633 *  0.106028 *  0.237497 *  -1.09800    1.000000    
      8 O     c    0.852538 *  0.106028 *  0.778506 *  -1.09800    1.000000    
      9 O     c    0.292129 *  0.719561 *  0.633160 *  -1.09800    1.000000    
     10 O     c    0.889482 *  0.479145 *  0.300851 *  -1.09800    1.000000    
     11 O     c    0.854520 *  0.630823 *  0.800914 *  -1.09800    1.000000    
     12 O     c    0.621943 *  0.920555 *  0.898986 *  -1.09800    1.000000    
--------------------------------------------------------------------------------



********************************************************************************
*  General input information                                                   *
********************************************************************************

  Species output for all configurations : 

--------------------------------------------------------------------------------
  Species    Type    Atomic    Atomic    Charge       Radii (Angs)     Library
                     Number     Mass       (e)     Cova   Ionic  VDW   Symbol
--------------------------------------------------------------------------------
    Ti       Core       22      47.88   2.196000   1.470  0.000  2.190          
    O        Core        8      16.00  -1.098000   0.730  0.000  1.360          
--------------------------------------------------------------------------------


  Lattice summation method               =    Ewald          (3-D)
                                         =    Parry          (2-D)
                                         =    Saunders et al (1-D)
  Accuracy factor for lattice sums       =   12.000


  Analytic derivatives to be used

  Time limit = Infinity

  Maximum range for interatomic potentials =    100000.000000 Angstroms

  General interatomic potentials :

--------------------------------------------------------------------------------
Atom  Types   Potential      Parameter       Value         Units   Cutoffs(Ang)
  1     2                                                            Min /  Max 
--------------------------------------------------------------------------------
Ti   c Ti   c Buckingham    Buckingham A     31120.100    eV        0.000 15.000
                            Buckingham rho  0.15400000    Ang       
                            Buckingham C     5.2500000    eV*Ang^6  
--------------------------------------------------------------------------------
O    c O    c Buckingham    Buckingham A     11782.700    eV        0.000 15.000
                            Buckingham rho  0.23400000    Ang       
                            Buckingham C     30.220000    eV*Ang^6  
--------------------------------------------------------------------------------
O    c Ti   c Buckingham    Buckingham A     16957.500    eV        0.000 15.000
                            Buckingham rho  0.19400000    Ang       
                            Buckingham C     12.590000    eV*Ang^6  
--------------------------------------------------------------------------------
Ti   c Ti   c Lennard       Lennard-Jones A  1.0000000    eV*Ang^m  0.000 15.000
                            Lennard-Jones B  0.0000000    eV*Ang^n  
                            Exponent m        12          None
                            Exponent n         6          None
--------------------------------------------------------------------------------
O    c O    c Lennard       Lennard-Jones A  1.0000000    eV*Ang^m  0.000 15.000
                            Lennard-Jones B  0.0000000    eV*Ang^n  
                            Exponent m        12          None
                            Exponent n         6          None
--------------------------------------------------------------------------------
O    c Ti   c Lennard       Lennard-Jones A  1.0000000    eV*Ang^m  0.000 15.000
                            Lennard-Jones B  0.0000000    eV*Ang^n  
                            Exponent m        12          None
                            Exponent n         6          None
--------------------------------------------------------------------------------

********************************************************************************
*  Output for configuration   1                                                *
********************************************************************************


  Components of energy : 

--------------------------------------------------------------------------------
  Interatomic potentials     =          72.42750535 eV    
  Monopole - monopole (real) =         -14.56642318 eV    
  Monopole - monopole (recip)=         -87.30562194 eV    
  Monopole - monopole (total)=        -101.87204512 eV    
--------------------------------------------------------------------------------
  Total lattice energy       =         -29.44453977 eV    
--------------------------------------------------------------------------------
  Total lattice energy       =           -2840.9480 kJ/(mole unit cells)
--------------------------------------------------------------------------------


  Number of variables =       39

  Maximum number of calculations  =          1000
  Maximum Hessian update interval =            10
  Maximum step size               =   1.000000000
  Maximum parameter tolerance     =   0.000010000
  Maximum function  tolerance     =   0.000010000
  Maximum gradient  tolerance     =   0.001000000
  Maximum gradient  component     =   0.010000000

  Symmetry not applied to optimisation

  Cell parameters to be optimised using strains

  Conjugate gradient optimiser to be used

  Lower half triangular hessian to be used

  Minimiser to switch to BFGS with exact hessian
  When gradient norm is less than     0.500000

  Start of bulk optimisation :

  Cycle:      0 Energy:       -29.444540  Gnorm:     29.826066  CPU:    0.030
  Cycle:      1 Energy:       -94.744036  Gnorm:     13.376370  CPU:    0.069
  Cycle:      2 Energy:      -104.122935  Gnorm:      6.949565  CPU:    0.114
  Cycle:      3 Energy:      -123.300156  Gnorm:      3.500983  CPU:    0.166
  Cycle:      4 Energy:      -128.879180  Gnorm:      3.934665  CPU:    0.211
  Cycle:      5 Energy:      -133.607570  Gnorm:      3.399017  CPU:    0.253
  Cycle:      6 Energy:      -135.975177  Gnorm:      1.398546  CPU:    0.287
  Cycle:      7 Energy:      -138.788901  Gnorm:      1.749736  CPU:    0.331
  Cycle:      8 Energy:      -141.203324  Gnorm:      2.247741  CPU:    0.364
  Cycle:      9 Energy:      -143.345892  Gnorm:      1.782538  CPU:    0.398
  Cycle:     10 Energy:      -144.547988  Gnorm:      1.320063  CPU:    0.432
  Cycle:     11 Energy:      -146.583587  Gnorm:      1.489874  CPU:    0.477
  Cycle:     12 Energy:      -147.934581  Gnorm:      0.931801  CPU:    0.512
  Cycle:     13 Energy:      -148.813402  Gnorm:      1.152543  CPU:    0.558
  Cycle:     14 Energy:      -149.696125  Gnorm:      0.851513  CPU:    0.593
  Cycle:     15 Energy:      -150.449031  Gnorm:      1.016010  CPU:    0.638
  Cycle:     16 Energy:      -151.547802  Gnorm:      1.022262  CPU:    0.685
  Cycle:     17 Energy:      -152.412511  Gnorm:      0.762403  CPU:    0.721
  Cycle:     18 Energy:      -152.815363  Gnorm:      0.846586  CPU:    0.758
  Cycle:     19 Energy:      -153.226338  Gnorm:      0.531774  CPU:    0.798
  Cycle:     20 Energy:      -153.453626  Gnorm:      0.467382  CPU:    0.843
  ** Hessian calculated **
  Cycle:     21 Energy:      -154.048883  Gnorm:      0.582109  CPU:    0.939
  Cycle:     22 Energy:      -154.387584  Gnorm:      0.487486  CPU:    0.971
  Cycle:     23 Energy:      -154.611422  Gnorm:      0.516508  CPU:    1.000
  Cycle:     24 Energy:      -154.971589  Gnorm:      0.506616  CPU:    1.035
  Cycle:     25 Energy:      -155.214204  Gnorm:      0.393894  CPU:    1.061
  Cycle:     26 Energy:      -155.424536  Gnorm:      0.352739  CPU:    1.085
  Cycle:     27 Energy:      -155.580427  Gnorm:      0.239878  CPU:    1.118
  Cycle:     28 Energy:      -155.637229  Gnorm:      0.161335  CPU:    1.142
  Cycle:     29 Energy:      -155.658319  Gnorm:      0.096387  CPU:    1.166
  Cycle:     30 Energy:      -155.687358  Gnorm:      0.152282  CPU:    1.196
  ** Hessian calculated **
  Cycle:     31 Energy:      -155.703225  Gnorm:      0.129664  CPU:    1.261
  Cycle:     32 Energy:      -155.724680  Gnorm:      0.132683  CPU:    1.292
  Cycle:     33 Energy:      -155.769241  Gnorm:      0.220963  CPU:    1.324
  Cycle:     34 Energy:      -155.882141  Gnorm:      0.252454  CPU:    1.367
  Cycle:     35 Energy:      -155.941655  Gnorm:      0.279009  CPU:    1.398
  Cycle:     36 Energy:      -156.051986  Gnorm:      0.150029  CPU:    1.427
  Cycle:     37 Energy:      -156.083144  Gnorm:      0.124248  CPU:    1.460
  Cycle:     38 Energy:      -156.100658  Gnorm:      0.074294  CPU:    1.489
  Cycle:     39 Energy:      -156.110257  Gnorm:      0.056789  CPU:    1.519
  Cycle:     40 Energy:      -156.115269  Gnorm:      0.049110  CPU:    1.549
  ** Hessian calculated **
  Cycle:     41 Energy:      -156.160656  Gnorm:      0.034544  CPU:    1.641
  Cycle:     42 Energy:      -156.189911  Gnorm:      0.025676  CPU:    1.680
  Cycle:     43 Energy:      -156.197318  Gnorm:      0.031428  CPU:    1.709
  Cycle:     44 Energy:      -156.208798  Gnorm:      0.037027  CPU:    1.743
  Cycle:     45 Energy:      -156.212700  Gnorm:      0.050138  CPU:    1.767
  Cycle:     46 Energy:      -156.215273  Gnorm:      0.018056  CPU:    1.791
  Cycle:     47 Energy:      -156.215726  Gnorm:      0.006957  CPU:    1.818
  Cycle:     48 Energy:      -156.215805  Gnorm:      0.002373  CPU:    1.841
  Cycle:     49 Energy:      -156.215816  Gnorm:      0.000885  CPU:    1.866


  **** Optimisation achieved ****


  Final energy =    -156.21581668 eV      
  Final Gnorm  =       0.00015493

  Components of energy : 

--------------------------------------------------------------------------------
  Interatomic potentials     =          12.72223746 eV    
  Monopole - monopole (real) =         -69.30530638 eV    
  Monopole - monopole (recip)=         -99.63274775 eV    
  Monopole - monopole (total)=        -168.93805413 eV    
--------------------------------------------------------------------------------
  Total lattice energy       =        -156.21581668 eV    
--------------------------------------------------------------------------------
  Total lattice energy       =          -15072.4383 kJ/(mole unit cells)
--------------------------------------------------------------------------------

  Final fractional coordinates of atoms :

--------------------------------------------------------------------------------
   No.  Atomic        x           y          z          Radius
        Label       (Frac)      (Frac)     (Frac)       (Angs) 
--------------------------------------------------------------------------------
     1  Ti    c     0.231129    0.106030    0.508000    0.000000
     2  Ti    c     0.568803    0.933184    0.521133    0.000000
     3  Ti    c     0.928715    0.501434    0.588049    0.000000
     4  Ti    c     0.395820    0.527138    0.005256    0.000000
     5  O     c     0.280191    0.210281    0.012780    0.000000
     6  O     c     0.599087    0.220221    0.500695    0.000000
     7  O     c     0.198461    0.824437    0.538245    0.000000
     8  O     c     0.925327    0.090230    0.529798    0.000000
     9  O     c     0.379883    0.560602    0.509778    0.000000
    10  O     c     0.044327    0.471798    0.055736    0.000000
    11  O     c     0.733179    0.593763    0.886415    0.000000
    12  O     c     0.534362    0.855226    0.018640    0.000000
--------------------------------------------------------------------------------

  Final Cartesian lattice vectors (Angstroms) :

        6.044271   -1.542821   -0.220526
       -2.406760    6.628657   -0.416648
        0.498707    0.198558    3.641206


  Final cell parameters and derivatives :

--------------------------------------------------------------------------------
       a            6.241966 Angstrom     dE/de1(xx)     0.000389 eV/strain
       b            7.064360 Angstrom     dE/de2(yy)     0.000512 eV/strain
       c            3.680559 Angstrom     dE/de3(zz)    -0.000563 eV/strain
       alpha       93.089205 Degrees      dE/de4(yz)     0.000886 eV/strain
       beta        85.243568 Degrees      dE/de5(xz)     0.000638 eV/strain
       gamma      124.037887 Degrees      dE/de6(xy)     0.000151 eV/strain
--------------------------------------------------------------------------------

  Primitive cell volume =           134.020848 Angs**3

  Density of cell =      3.958965 g/cm**3

  Non-primitive cell volume =           134.020848 Angs**3


  Final internal derivatives :

--------------------------------------------------------------------------------
   No.  Atomic          a             b             c           Radius
        Label          (eV)          (eV)          (eV)        (eV/Angs)
--------------------------------------------------------------------------------
      1 Ti    c       0.000000      0.000000      0.000000      0.000000
      2 Ti    c      -0.001184      0.000367     -0.000893      0.000000
      3 Ti    c       0.001684     -0.002737      0.000458      0.000000
      4 Ti    c      -0.000530      0.003101      0.000306      0.000000
      5 O     c       0.001782      0.000328     -0.000453      0.000000
      6 O     c      -0.000450      0.001136     -0.000166      0.000000
      7 O     c       0.000320     -0.000951      0.000172      0.000000
      8 O     c       0.000602     -0.001118     -0.000377      0.000000
      9 O     c       0.000434     -0.000294      0.000008      0.000000
     10 O     c      -0.000530     -0.000188     -0.000057      0.000000
     11 O     c       0.000183      0.000205      0.000696      0.000000
     12 O     c      -0.001113      0.001152      0.000423      0.000000
--------------------------------------------------------------------------------
  Maximum abs         0.001782      0.003101      0.000893      0.000000
--------------------------------------------------------------------------------


  Time to end of optimisation =       1.8897 seconds


  Peak dynamic memory used =       1.84 MB 


  Timing analysis for GULP :

--------------------------------------------------------------------------------
  Task / Subroutine                                          Time (Seconds)
--------------------------------------------------------------------------------
  Calculation of reciprocal space energy and derivatives          0.0640
  Calculation of real space energy and derivatives                1.8063
  Calculation and manipulation of Hessian matrix                  0.0003
  Calculation of matrix inversion                                 0.0006
  Global summation overhead                                       0.0003
--------------------------------------------------------------------------------
  Total CPU time                                                  1.8898
--------------------------------------------------------------------------------


  Job Finished at 11:11.38 29th May        2024                               

