********************************************************************************
*                       GENERAL UTILITY LATTICE PROGRAM                        *
*                                 Julian Gale                                  *
*                       Curtin Institute for Computation                       *
*                    School of Molecular and Life Sciences                     *
*                    Curtin University, Western Australia                      *
********************************************************************************
* Version = 6.0.0 * Last modified =  12th July 2021                            *
********************************************************************************
*  optimise     - perform optimisation run                                     *
*  conp         - constant pressure calculation                                *
*  conjugate    - use conjugate gradients minimiser                            *
********************************************************************************

  Job Started  at 11:15.02 29th May        2024                               

  Number of CPUs =     1


  Total number of configurations input =      1

********************************************************************************
*  Input for Configuration =   1                                               *
********************************************************************************

  Formula = Ti4O8                                                       

  Number of irreducible atoms/shells =      12


  Total number atoms/shells =      12

  Dimensionality = 3               :  Bulk   



  Cartesian lattice vectors (Angstroms) :

       11.189101   -1.084556   -0.014300
       -0.861741    7.191674   -0.775254
       -2.397354   -1.819424    1.912294

  Cell parameters (Angstroms/Degrees):

  a =      11.2415    alpha = 118.7697
  b =       7.2845    beta  = 128.3635
  c =       3.5657    gamma = 102.2899

  Initial cell volume =         134.024851 Angs**3

  Temperature of configuration =   0.00     K 

  Pressure of configuration =         0.000 GPa 

  Fractional coordinates of asymmetric unit :

--------------------------------------------------------------------------------
   No.  Atomic       x           y          z         Charge      Occupancy
        Label      (Frac)      (Frac)     (Frac)        (e)         (Frac)  
--------------------------------------------------------------------------------
      1 Ti    c    0.164223    0.053289    0.424538     2.19600    1.000000    
      2 Ti    c    0.020193 *  0.341342 *  0.424535 *   2.19600    1.000000    
      3 Ti    c    0.452276 *  0.053286 *  0.424534 *   2.19600    1.000000    
      4 Ti    c    0.308251 *  0.341345 *  0.424539 *   2.19600    1.000000    
      5 O     c    0.427805 *  0.226260 *  0.021397 *  -1.09800    1.000000    
      6 O     c    0.073611 *  0.226261 *  0.021399 *  -1.09800    1.000000    
      7 O     c    0.361669 *  0.226265 *  0.243319 *  -1.09800    1.000000    
      8 O     c    0.139753 *  0.226266 *  0.375600 *  -1.09800    1.000000    
      9 O     c    0.283781 *  0.514322 *  0.021402 *  -1.09800    1.000000    
     10 O     c    0.571834 *  0.514317 *  0.375591 *  -1.09800    1.000000    
     11 O     c    0.217639 *  0.514317 *  0.243313 *  -1.09800    1.000000    
     12 O     c    0.505697 *  0.514322 *  0.021401 *  -1.09800    1.000000    
--------------------------------------------------------------------------------



********************************************************************************
*  General input information                                                   *
********************************************************************************

  Species output for all configurations : 

--------------------------------------------------------------------------------
  Species    Type    Atomic    Atomic    Charge       Radii (Angs)     Library
                     Number     Mass       (e)     Cova   Ionic  VDW   Symbol
--------------------------------------------------------------------------------
    Ti       Core       22      47.88   2.196000   1.470  0.000  2.190          
    O        Core        8      16.00  -1.098000   0.730  0.000  1.360          
--------------------------------------------------------------------------------


  Lattice summation method               =    Ewald          (3-D)
                                         =    Parry          (2-D)
                                         =    Saunders et al (1-D)
  Accuracy factor for lattice sums       =   12.000


  Analytic derivatives to be used

  Time limit = Infinity

  Maximum range for interatomic potentials =    100000.000000 Angstroms

  General interatomic potentials :

--------------------------------------------------------------------------------
Atom  Types   Potential      Parameter       Value         Units   Cutoffs(Ang)
  1     2                                                            Min /  Max 
--------------------------------------------------------------------------------
Ti   c Ti   c Buckingham    Buckingham A     31120.100    eV        0.000 15.000
                            Buckingham rho  0.15400000    Ang       
                            Buckingham C     5.2500000    eV*Ang^6  
--------------------------------------------------------------------------------
O    c O    c Buckingham    Buckingham A     11782.700    eV        0.000 15.000
                            Buckingham rho  0.23400000    Ang       
                            Buckingham C     30.220000    eV*Ang^6  
--------------------------------------------------------------------------------
O    c Ti   c Buckingham    Buckingham A     16957.500    eV        0.000 15.000
                            Buckingham rho  0.19400000    Ang       
                            Buckingham C     12.590000    eV*Ang^6  
--------------------------------------------------------------------------------
Ti   c Ti   c Lennard       Lennard-Jones A  1.0000000    eV*Ang^m  0.000 15.000
                            Lennard-Jones B  0.0000000    eV*Ang^n  
                            Exponent m        12          None
                            Exponent n         6          None
--------------------------------------------------------------------------------
O    c O    c Lennard       Lennard-Jones A  1.0000000    eV*Ang^m  0.000 15.000
                            Lennard-Jones B  0.0000000    eV*Ang^n  
                            Exponent m        12          None
                            Exponent n         6          None
--------------------------------------------------------------------------------
O    c Ti   c Lennard       Lennard-Jones A  1.0000000    eV*Ang^m  0.000 15.000
                            Lennard-Jones B  0.0000000    eV*Ang^n  
                            Exponent m        12          None
                            Exponent n         6          None
--------------------------------------------------------------------------------

********************************************************************************
*  Output for configuration   1                                                *
********************************************************************************


  Components of energy : 

--------------------------------------------------------------------------------
  Interatomic potentials     =         528.08802689 eV    
  Monopole - monopole (real) =         -45.40621709 eV    
  Monopole - monopole (recip)=         -91.60880475 eV    
  Monopole - monopole (total)=        -137.01502184 eV    
--------------------------------------------------------------------------------
  Total lattice energy       =         391.07300505 eV    
--------------------------------------------------------------------------------
  Total lattice energy       =           37732.5669 kJ/(mole unit cells)
--------------------------------------------------------------------------------


  Number of variables =       39

  Maximum number of calculations  =          1000
  Maximum Hessian update interval =            10
  Maximum step size               =   1.000000000
  Maximum parameter tolerance     =   0.000010000
  Maximum function  tolerance     =   0.000010000
  Maximum gradient  tolerance     =   0.001000000
  Maximum gradient  component     =   0.010000000

  Symmetry not applied to optimisation

  Cell parameters to be optimised using strains

  Conjugate gradient optimiser to be used

  Lower half triangular hessian to be used

  Minimiser to switch to BFGS with exact hessian
  When gradient norm is less than     0.500000

  Start of bulk optimisation :

  Cycle:      0 Energy:       391.073005  Gnorm:    198.808798  CPU:    0.036
  Cycle:      1 Energy:       105.086239  Gnorm:     67.773798  CPU:    0.098
  Cycle:      2 Energy:        -3.538415  Gnorm:     57.380022  CPU:    0.174
  Cycle:      3 Energy:       -74.318814  Gnorm:     25.881457  CPU:    0.245
  Cycle:      4 Energy:      -100.730586  Gnorm:     13.253680  CPU:    0.295
  Cycle:      5 Energy:      -122.168082  Gnorm:     10.016819  CPU:    0.384
  Cycle:      6 Energy:      -128.909160  Gnorm:      3.916067  CPU:    0.431
  Cycle:      7 Energy:      -131.347262  Gnorm:      5.418771  CPU:    0.485
  Cycle:      8 Energy:      -135.185871  Gnorm:      2.578746  CPU:    0.542
  Cycle:      9 Energy:      -137.427402  Gnorm:      3.147378  CPU:    0.595
  Cycle:     10 Energy:      -138.896940  Gnorm:      1.788308  CPU:    0.639
  Cycle:     11 Energy:      -140.564572  Gnorm:      2.206734  CPU:    0.695
  Cycle:     12 Energy:      -142.005161  Gnorm:      2.166633  CPU:    0.740
  Cycle:     13 Energy:      -143.213466  Gnorm:      2.146435  CPU:    0.784
  Cycle:     14 Energy:      -144.461118  Gnorm:      1.634464  CPU:    0.841
  Cycle:     15 Energy:      -145.462008  Gnorm:      1.836975  CPU:    0.900
  Cycle:     16 Energy:      -146.074224  Gnorm:      1.258576  CPU:    0.946
  Cycle:     17 Energy:      -146.845064  Gnorm:      1.081879  CPU:    1.006
  Cycle:     18 Energy:      -147.102537  Gnorm:      1.064708  CPU:    1.052
  Cycle:     19 Energy:      -147.421545  Gnorm:      0.820845  CPU:    1.112
  Cycle:     20 Energy:      -147.652372  Gnorm:      0.669994  CPU:    1.169
  Cycle:     21 Energy:      -147.825334  Gnorm:      0.731937  CPU:    1.229
  Cycle:     22 Energy:      -147.991903  Gnorm:      0.690640  CPU:    1.275
  Cycle:     23 Energy:      -148.425803  Gnorm:      0.929824  CPU:    1.335
  Cycle:     24 Energy:      -148.826842  Gnorm:      0.715978  CPU:    1.382
  Cycle:     25 Energy:      -149.015779  Gnorm:      0.640825  CPU:    1.428
  Cycle:     26 Energy:      -149.282325  Gnorm:      0.734650  CPU:    1.487
  Cycle:     27 Energy:      -149.406800  Gnorm:      0.498365  CPU:    1.547
  ** Hessian calculated **
  Cycle:     28 Energy:      -149.767640  Gnorm:      0.763737  CPU:    1.631
  Cycle:     29 Energy:      -150.132783  Gnorm:      0.762370  CPU:    1.692
  Cycle:     30 Energy:      -150.462723  Gnorm:      1.000873  CPU:    1.741
  Cycle:     31 Energy:      -150.853760  Gnorm:      0.890014  CPU:    1.807
  Cycle:     32 Energy:      -151.191770  Gnorm:      0.738730  CPU:    1.860
  Cycle:     33 Energy:      -151.477318  Gnorm:      0.694085  CPU:    1.915
  Cycle:     34 Energy:      -151.829872  Gnorm:      0.920751  CPU:    1.982
  Cycle:     35 Energy:      -152.458270  Gnorm:      1.021918  CPU:    2.066
  Cycle:     36 Energy:      -153.142684  Gnorm:      1.125183  CPU:    2.136
  Cycle:     37 Energy:      -153.767805  Gnorm:      1.101858  CPU:    2.192
  ** Hessian calculated **
  Cycle:     38 Energy:      -154.037929  Gnorm:      0.566153  CPU:    2.291
  Cycle:     39 Energy:      -154.217128  Gnorm:      0.516578  CPU:    2.360
  Cycle:     40 Energy:      -154.359494  Gnorm:      0.400135  CPU:    2.428
  Cycle:     41 Energy:      -154.522387  Gnorm:      0.496106  CPU:    2.500
  Cycle:     42 Energy:      -154.647509  Gnorm:      0.369350  CPU:    2.556
  Cycle:     43 Energy:      -154.719772  Gnorm:      0.268599  CPU:    2.612
  Cycle:     44 Energy:      -154.758796  Gnorm:      0.276970  CPU:    2.664
  Cycle:     45 Energy:      -154.804574  Gnorm:      0.303758  CPU:    2.732
  Cycle:     46 Energy:      -154.884451  Gnorm:      0.306993  CPU:    2.799
  Cycle:     47 Energy:      -154.941753  Gnorm:      0.339711  CPU:    2.857
  ** Hessian calculated **
  Cycle:     48 Energy:      -154.975316  Gnorm:      0.218795  CPU:    2.959
  Cycle:     49 Energy:      -155.021405  Gnorm:      0.252416  CPU:    3.025
  Cycle:     50 Energy:      -155.066622  Gnorm:      0.224289  CPU:    3.092
  Cycle:     51 Energy:      -155.098952  Gnorm:      0.204544  CPU:    3.148
  Cycle:     52 Energy:      -155.185218  Gnorm:      0.331918  CPU:    3.231
  Cycle:     53 Energy:      -155.349782  Gnorm:      0.535351  CPU:    3.303
  Cycle:     54 Energy:      -155.442152  Gnorm:      0.325428  CPU:    3.373
  Cycle:     55 Energy:      -155.491865  Gnorm:      0.200484  CPU:    3.431
  Cycle:     56 Energy:      -155.535421  Gnorm:      0.221383  CPU:    3.500
  Cycle:     57 Energy:      -155.600510  Gnorm:      0.341941  CPU:    3.571
  ** Hessian calculated **
  Cycle:     58 Energy:      -155.706196  Gnorm:      0.386689  CPU:    3.701
  ** Hessian calculated **
  Cycle:     59 Energy:      -155.912345  Gnorm:      0.248139  CPU:    3.851
  Cycle:     60 Energy:      -156.126528  Gnorm:      0.342545  CPU:    3.938
  ** Hessian calculated **
  Cycle:     61 Energy:      -156.161607  Gnorm:      0.235387  CPU:    4.045
  Cycle:     62 Energy:      -156.180089  Gnorm:      0.104234  CPU:    4.104
  Cycle:     63 Energy:      -156.187143  Gnorm:      0.087975  CPU:    4.176
  Cycle:     64 Energy:      -156.193129  Gnorm:      0.105003  CPU:    4.248
  Cycle:     65 Energy:      -156.198982  Gnorm:      0.082448  CPU:    4.321
  Cycle:     66 Energy:      -156.204709  Gnorm:      0.068039  CPU:    4.396
  Cycle:     67 Energy:      -156.206725  Gnorm:      0.047326  CPU:    4.457
  Cycle:     68 Energy:      -156.208124  Gnorm:      0.037493  CPU:    4.514
  Cycle:     69 Energy:      -156.209322  Gnorm:      0.042765  CPU:    4.587
  Cycle:     70 Energy:      -156.210495  Gnorm:      0.031866  CPU:    4.659
  ** Hessian calculated **
  Cycle:     71 Energy:      -156.217091  Gnorm:      0.031418  CPU:    4.822
  Cycle:     72 Energy:      -156.227437  Gnorm:      0.030625  CPU:    4.924
  Cycle:     73 Energy:      -156.240314  Gnorm:      0.030111  CPU:    5.011
  Cycle:     74 Energy:      -156.261984  Gnorm:      0.032943  CPU:    5.114
  Cycle:     75 Energy:      -156.295301  Gnorm:      0.056522  CPU:    5.217
  ** Hessian calculated **
  Cycle:     76 Energy:      -156.296121  Gnorm:      0.034969  CPU:    5.326
  Cycle:     77 Energy:      -156.296783  Gnorm:      0.035087  CPU:    5.400
  Cycle:     78 Energy:      -156.297748  Gnorm:      0.037355  CPU:    5.472
  Cycle:     79 Energy:      -156.298495  Gnorm:      0.027892  CPU:    5.532
  Cycle:     80 Energy:      -156.299609  Gnorm:      0.034437  CPU:    5.604
  Cycle:     81 Energy:      -156.300722  Gnorm:      0.035529  CPU:    5.667
  Cycle:     82 Energy:      -156.301628  Gnorm:      0.031538  CPU:    5.729
  Cycle:     83 Energy:      -156.302920  Gnorm:      0.039964  CPU:    5.805
  Cycle:     84 Energy:      -156.306992  Gnorm:      0.077863  CPU:    5.898
  Cycle:     85 Energy:      -156.315580  Gnorm:      0.095470  CPU:    5.989
  ** Hessian calculated **
  Cycle:     86 Energy:      -156.320458  Gnorm:      0.073858  CPU:    6.120
  Cycle:     87 Energy:      -156.322667  Gnorm:      0.040126  CPU:    6.181
  Cycle:     88 Energy:      -156.323777  Gnorm:      0.037008  CPU:    6.244
  Cycle:     89 Energy:      -156.325011  Gnorm:      0.043960  CPU:    6.322
  Cycle:     90 Energy:      -156.326495  Gnorm:      0.035923  CPU:    6.396
  Cycle:     91 Energy:      -156.327853  Gnorm:      0.031905  CPU:    6.472
  Cycle:     92 Energy:      -156.329141  Gnorm:      0.042184  CPU:    6.546
  Cycle:     93 Energy:      -156.330451  Gnorm:      0.041219  CPU:    6.625
  Cycle:     94 Energy:      -156.331508  Gnorm:      0.044670  CPU:    6.688
  Cycle:     95 Energy:      -156.333376  Gnorm:      0.077919  CPU:    6.769
  ** Hessian calculated **
  Cycle:     96 Energy:      -156.335011  Gnorm:      0.039727  CPU:    6.887
  Cycle:     97 Energy:      -156.335933  Gnorm:      0.038136  CPU:    6.965
  Cycle:     98 Energy:      -156.337107  Gnorm:      0.039609  CPU:    7.042
  Cycle:     99 Energy:      -156.338284  Gnorm:      0.031511  CPU:    7.117
  Cycle:    100 Energy:      -156.339630  Gnorm:      0.038207  CPU:    7.189
  Cycle:    101 Energy:      -156.341474  Gnorm:      0.049098  CPU:    7.268
  Cycle:    102 Energy:      -156.343428  Gnorm:      0.046986  CPU:    7.350
  Cycle:    103 Energy:      -156.345009  Gnorm:      0.044120  CPU:    7.414
  Cycle:    104 Energy:      -156.348588  Gnorm:      0.102787  CPU:    7.493
  Cycle:    105 Energy:      -156.358682  Gnorm:      0.143066  CPU:    7.590
  ** Hessian calculated **
  Cycle:    106 Energy:      -156.366899  Gnorm:      0.095761  CPU:    7.723
  Cycle:    107 Energy:      -156.370706  Gnorm:      0.059657  CPU:    7.784
  Cycle:    108 Energy:      -156.372883  Gnorm:      0.058644  CPU:    7.847
  Cycle:    109 Energy:      -156.376166  Gnorm:      0.073406  CPU:    7.929
  Cycle:    110 Energy:      -156.379294  Gnorm:      0.056018  CPU:    8.010
  Cycle:    111 Energy:      -156.381738  Gnorm:      0.045285  CPU:    8.085
  Cycle:    112 Energy:      -156.384160  Gnorm:      0.063773  CPU:    8.176
  Cycle:    113 Energy:      -156.386932  Gnorm:      0.052204  CPU:    8.255
  Cycle:    114 Energy:      -156.389151  Gnorm:      0.060096  CPU:    8.320
  Cycle:    115 Energy:      -156.394504  Gnorm:      0.128150  CPU:    8.404
  ** Hessian calculated **
  Cycle:    116 Energy:      -156.399014  Gnorm:      0.064410  CPU:    8.523
  Cycle:    117 Energy:      -156.401507  Gnorm:      0.058874  CPU:    8.603
  Cycle:    118 Energy:      -156.405205  Gnorm:      0.070729  CPU:    8.686
  Cycle:    119 Energy:      -156.408654  Gnorm:      0.057642  CPU:    8.762
  Cycle:    120 Energy:      -156.412083  Gnorm:      0.058917  CPU:    8.841
  Cycle:    121 Energy:      -156.417072  Gnorm:      0.084961  CPU:    8.921
  Cycle:    122 Energy:      -156.422604  Gnorm:      0.088274  CPU:    9.004
  Cycle:    123 Energy:      -156.428571  Gnorm:      0.090700  CPU:    9.083
  Cycle:    124 Energy:      -156.437013  Gnorm:      0.146913  CPU:    9.167
  Cycle:    125 Energy:      -156.456084  Gnorm:      0.227520  CPU:    9.248
  ** Hessian calculated **
  Cycle:    126 Energy:      -156.475868  Gnorm:      0.153738  CPU:    9.369
  Cycle:    127 Energy:      -156.488446  Gnorm:      0.116720  CPU:    9.452
  Cycle:    128 Energy:      -156.498137  Gnorm:      0.132975  CPU:    9.537
  Cycle:    129 Energy:      -156.507738  Gnorm:      0.129109  CPU:    9.618
  Cycle:    130 Energy:      -156.518153  Gnorm:      0.098662  CPU:    9.699
  Cycle:    131 Energy:      -156.526155  Gnorm:      0.093368  CPU:    9.779
  Cycle:    132 Energy:      -156.536527  Gnorm:      0.138212  CPU:    9.866
  Cycle:    133 Energy:      -156.548790  Gnorm:      0.091586  CPU:    9.950
  Cycle:    134 Energy:      -156.553948  Gnorm:      0.101411  CPU:   10.020
  Cycle:    135 Energy:      -156.565598  Gnorm:      0.183644  CPU:   10.104
  ** Hessian calculated **
  Cycle:    136 Energy:      -156.630885  Gnorm:      0.184242  CPU:   10.292
  ** Hessian calculated **
  Cycle:    137 Energy:      -156.721083  Gnorm:      0.172863  CPU:   10.482
  ** Hessian calculated **
  Cycle:    138 Energy:      -156.810685  Gnorm:      0.136119  CPU:   10.658
  Cycle:    139 Energy:      -156.870882  Gnorm:      0.076784  CPU:   10.746
  Cycle:    140 Energy:      -156.883483  Gnorm:      0.020410  CPU:   10.819
  Cycle:    141 Energy:      -156.884625  Gnorm:      0.006757  CPU:   10.906
  Cycle:    142 Energy:      -156.884779  Gnorm:      0.002146  CPU:   10.996
  Cycle:    143 Energy:      -156.884787  Gnorm:      0.000595  CPU:   11.064


  **** Optimisation achieved ****


  Final energy =    -156.88478766 eV      
  Final Gnorm  =       0.00015067

  Components of energy : 

--------------------------------------------------------------------------------
  Interatomic potentials     =          11.24532824 eV    
  Monopole - monopole (real) =         -61.74227129 eV    
  Monopole - monopole (recip)=        -106.38784461 eV    
  Monopole - monopole (total)=        -168.13011590 eV    
--------------------------------------------------------------------------------
  Total lattice energy       =        -156.88478766 eV    
--------------------------------------------------------------------------------
  Total lattice energy       =          -15136.9838 kJ/(mole unit cells)
--------------------------------------------------------------------------------

  Final fractional coordinates of atoms :

--------------------------------------------------------------------------------
   No.  Atomic        x           y          z          Radius
        Label       (Frac)      (Frac)     (Frac)       (Angs) 
--------------------------------------------------------------------------------
     1  Ti    c     0.164223    0.053289    0.424538    0.000000
     2  Ti    c     0.664221    0.053289    0.924539    0.000000
     3  Ti    c     0.414224    0.053292    0.174545    0.000000
     4  Ti    c     0.914217    0.053281    0.674522    0.000000
     5  O     c     0.476729    0.303305    0.112071    0.000000
     6  O     c     0.601722    0.803293    0.987046    0.000000
     7  O     c     0.226721    0.303287    0.362037    0.000000
     8  O     c     0.851726    0.803295    0.737055    0.000000
     9  O     c     0.976720    0.303283    0.612030    0.000000
    10  O     c     0.726725    0.303296    0.862051    0.000000
    11  O     c     0.101726    0.803292    0.487050    0.000000
    12  O     c     0.351723    0.803292    0.237046    0.000000
--------------------------------------------------------------------------------

  Final Cartesian lattice vectors (Angstroms) :

       11.693719   -3.359764    1.453579
       -2.754446    7.972499   -3.114351
       -1.817354   -1.993374    2.067176


  Final cell parameters and derivatives :

--------------------------------------------------------------------------------
       a           12.253324 Angstrom     dE/de1(xx)    -0.000478 eV/strain
       b            8.991490 Angstrom     dE/de2(yy)    -0.000022 eV/strain
       c            3.398461 Angstrom     dE/de3(zz)     0.000247 eV/strain
       alpha      124.537495 Degrees      dE/de4(yz)     0.000591 eV/strain
       beta       106.102153 Degrees      dE/de5(xz)     0.000096 eV/strain
       gamma      125.208643 Degrees      dE/de6(xy)     0.000141 eV/strain
--------------------------------------------------------------------------------

  Primitive cell volume =           111.019339 Angs**3

  Density of cell =      4.779202 g/cm**3

  Non-primitive cell volume =           111.019339 Angs**3


  Final internal derivatives :

--------------------------------------------------------------------------------
   No.  Atomic          a             b             c           Radius
        Label          (eV)          (eV)          (eV)        (eV/Angs)
--------------------------------------------------------------------------------
      1 Ti    c       0.000000      0.000000      0.000000      0.000000
      2 Ti    c      -0.000726      0.000588      0.000032      0.000000
      3 Ti    c       0.000724      0.000131     -0.000178      0.000000
      4 Ti    c      -0.001047     -0.000288     -0.000145      0.000000
      5 O     c      -0.003028      0.002435      0.000142      0.000000
      6 O     c      -0.000737      0.000447     -0.000112      0.000000
      7 O     c      -0.000346     -0.000290      0.000183      0.000000
      8 O     c      -0.000934      0.001130      0.000136      0.000000
      9 O     c       0.002180     -0.002122      0.000247      0.000000
     10 O     c      -0.000970      0.000898     -0.000219      0.000000
     11 O     c       0.000147     -0.000083      0.000212      0.000000
     12 O     c       0.000938     -0.000929      0.000087      0.000000
--------------------------------------------------------------------------------
  Maximum abs         0.003028      0.002435      0.000247      0.000000
--------------------------------------------------------------------------------


  Time to end of optimisation =      11.1359 seconds


  Peak dynamic memory used =       1.84 MB 


  Timing analysis for GULP :

--------------------------------------------------------------------------------
  Task / Subroutine                                          Time (Seconds)
--------------------------------------------------------------------------------
  Calculation of reciprocal space energy and derivatives          0.2027
  Calculation of real space energy and derivatives               10.8883
  Calculation and manipulation of Hessian matrix                  0.0017
  Calculation of matrix inversion                                 0.0032
  Global summation overhead                                       0.0010
--------------------------------------------------------------------------------
  Total CPU time                                                 11.1359
--------------------------------------------------------------------------------


  Job Finished at 11:15.13 29th May        2024                               

