********************************************************************************
*                       GENERAL UTILITY LATTICE PROGRAM                        *
*                                 Julian Gale                                  *
*                       Curtin Institute for Computation                       *
*                    School of Molecular and Life Sciences                     *
*                    Curtin University, Western Australia                      *
********************************************************************************
* Version = 6.0.0 * Last modified =  12th July 2021                            *
********************************************************************************
*  optimise     - perform optimisation run                                     *
*  conp         - constant pressure calculation                                *
*  conjugate    - use conjugate gradients minimiser                            *
********************************************************************************

  Job Started  at 11:15.25 29th May        2024                               

  Number of CPUs =     1


  Total number of configurations input =      1

********************************************************************************
*  Input for Configuration =   1                                               *
********************************************************************************

  Formula = Ti4O8                                                       

  Number of irreducible atoms/shells =      12


  Total number atoms/shells =      12

  Dimensionality = 3               :  Bulk   



  Cartesian lattice vectors (Angstroms) :

        5.182924    0.128562    0.750077
       -0.223799    7.006399    0.345601
        0.611724   -0.166269    3.766585

  Cell parameters (Angstroms/Degrees):

  a =       5.2385    alpha =  90.0002
  b =       7.0185    beta  =  72.6272
  c =       3.8196    gamma =  89.9999

  Initial cell volume =         134.024851 Angs**3

  Temperature of configuration =   0.00     K 

  Pressure of configuration =         0.000 GPa 

  Fractional coordinates of asymmetric unit :

--------------------------------------------------------------------------------
   No.  Atomic       x           y          z         Charge      Occupancy
        Label      (Frac)      (Frac)     (Frac)        (e)         (Frac)  
--------------------------------------------------------------------------------
      1 Ti    c    0.023949    0.977403    0.587173     2.19600    1.000000    
      2 Ti    c    0.161118 *  0.729796 *  0.389438 *   2.19600    1.000000    
      3 Ti    c    0.219942 *  0.237128 *  0.545877 *   2.19600    1.000000    
      4 Ti    c    0.653787 *  0.072677 *  0.882110 *   2.19600    1.000000    
      5 O     c    0.781881 *  0.615495 *  0.517388 *  -1.09800    1.000000    
      6 O     c    0.091851 *  0.679647 *  0.910594 *  -1.09800    1.000000    
      7 O     c    0.849782 *  0.317740 *  0.840812 *  -1.09800    1.000000    
      8 O     c    0.357114 *  0.484733 *  0.348140 *  -1.09800    1.000000    
      9 O     c    0.584522 *  0.122825 *  0.417925 *  -1.09800    1.000000    
     10 O     c    0.289209 *  0.186978 *  0.024722 *  -1.09800    1.000000    
     11 O     c    0.516617 *  0.810409 *  0.094502 *  -1.09800    1.000000    
     12 O     c    0.712612 *  0.565346 *  0.053203 *  -1.09800    1.000000    
--------------------------------------------------------------------------------



********************************************************************************
*  General input information                                                   *
********************************************************************************

  Species output for all configurations : 

--------------------------------------------------------------------------------
  Species    Type    Atomic    Atomic    Charge       Radii (Angs)     Library
                     Number     Mass       (e)     Cova   Ionic  VDW   Symbol
--------------------------------------------------------------------------------
    Ti       Core       22      47.88   2.196000   1.470  0.000  2.190          
    O        Core        8      16.00  -1.098000   0.730  0.000  1.360          
--------------------------------------------------------------------------------


  Lattice summation method               =    Ewald          (3-D)
                                         =    Parry          (2-D)
                                         =    Saunders et al (1-D)
  Accuracy factor for lattice sums       =   12.000


  Analytic derivatives to be used

  Time limit = Infinity

  Maximum range for interatomic potentials =    100000.000000 Angstroms

  General interatomic potentials :

--------------------------------------------------------------------------------
Atom  Types   Potential      Parameter       Value         Units   Cutoffs(Ang)
  1     2                                                            Min /  Max 
--------------------------------------------------------------------------------
Ti   c Ti   c Buckingham    Buckingham A     31120.100    eV        0.000 15.000
                            Buckingham rho  0.15400000    Ang       
                            Buckingham C     5.2500000    eV*Ang^6  
--------------------------------------------------------------------------------
O    c O    c Buckingham    Buckingham A     11782.700    eV        0.000 15.000
                            Buckingham rho  0.23400000    Ang       
                            Buckingham C     30.220000    eV*Ang^6  
--------------------------------------------------------------------------------
O    c Ti   c Buckingham    Buckingham A     16957.500    eV        0.000 15.000
                            Buckingham rho  0.19400000    Ang       
                            Buckingham C     12.590000    eV*Ang^6  
--------------------------------------------------------------------------------
Ti   c Ti   c Lennard       Lennard-Jones A  1.0000000    eV*Ang^m  0.000 15.000
                            Lennard-Jones B  0.0000000    eV*Ang^n  
                            Exponent m        12          None
                            Exponent n         6          None
--------------------------------------------------------------------------------
O    c O    c Lennard       Lennard-Jones A  1.0000000    eV*Ang^m  0.000 15.000
                            Lennard-Jones B  0.0000000    eV*Ang^n  
                            Exponent m        12          None
                            Exponent n         6          None
--------------------------------------------------------------------------------
O    c Ti   c Lennard       Lennard-Jones A  1.0000000    eV*Ang^m  0.000 15.000
                            Lennard-Jones B  0.0000000    eV*Ang^n  
                            Exponent m        12          None
                            Exponent n         6          None
--------------------------------------------------------------------------------

********************************************************************************
*  Output for configuration   1                                                *
********************************************************************************


  Components of energy : 

--------------------------------------------------------------------------------
  Interatomic potentials     =          18.12699137 eV    
  Monopole - monopole (real) =         -17.66274429 eV    
  Monopole - monopole (recip)=         -73.55268054 eV    
  Monopole - monopole (total)=         -91.21542484 eV    
--------------------------------------------------------------------------------
  Total lattice energy       =         -73.08843347 eV    
--------------------------------------------------------------------------------
  Total lattice energy       =           -7051.9166 kJ/(mole unit cells)
--------------------------------------------------------------------------------


  Number of variables =       39

  Maximum number of calculations  =          1000
  Maximum Hessian update interval =            10
  Maximum step size               =   1.000000000
  Maximum parameter tolerance     =   0.000010000
  Maximum function  tolerance     =   0.000010000
  Maximum gradient  tolerance     =   0.001000000
  Maximum gradient  component     =   0.010000000

  Symmetry not applied to optimisation

  Cell parameters to be optimised using strains

  Conjugate gradient optimiser to be used

  Lower half triangular hessian to be used

  Minimiser to switch to BFGS with exact hessian
  When gradient norm is less than     0.500000

  Start of bulk optimisation :

  Cycle:      0 Energy:       -73.088433  Gnorm:     12.064060  CPU:    0.022
  Cycle:      1 Energy:      -108.523731  Gnorm:      7.045524  CPU:    0.046
  Cycle:      2 Energy:      -115.315265  Gnorm:      7.135961  CPU:    0.068
  Cycle:      3 Energy:      -123.056125  Gnorm:      4.598077  CPU:    0.095
  Cycle:      4 Energy:      -131.472953  Gnorm:      3.732614  CPU:    0.121
  Cycle:      5 Energy:      -134.958476  Gnorm:      2.881766  CPU:    0.142
  Cycle:      6 Energy:      -138.449612  Gnorm:      1.824040  CPU:    0.166
  Cycle:      7 Energy:      -140.733820  Gnorm:      1.972700  CPU:    0.191
  Cycle:      8 Energy:      -142.639413  Gnorm:      1.639719  CPU:    0.211
  Cycle:      9 Energy:      -144.309396  Gnorm:      1.981154  CPU:    0.236
  Cycle:     10 Energy:      -145.266902  Gnorm:      1.234564  CPU:    0.256
  Cycle:     11 Energy:      -145.971674  Gnorm:      1.302850  CPU:    0.281
  Cycle:     12 Energy:      -147.633146  Gnorm:      1.654100  CPU:    0.307
  Cycle:     13 Energy:      -148.444112  Gnorm:      1.280683  CPU:    0.332
  Cycle:     14 Energy:      -149.318108  Gnorm:      1.146841  CPU:    0.358
  Cycle:     15 Energy:      -149.954316  Gnorm:      0.791914  CPU:    0.384
  Cycle:     16 Energy:      -150.248758  Gnorm:      0.703142  CPU:    0.409
  Cycle:     17 Energy:      -150.495195  Gnorm:      0.512897  CPU:    0.435
  Cycle:     18 Energy:      -150.790546  Gnorm:      0.557341  CPU:    0.464
  Cycle:     19 Energy:      -151.045392  Gnorm:      0.400760  CPU:    0.490
  ** Hessian calculated **
  Cycle:     20 Energy:      -151.377354  Gnorm:      0.398984  CPU:    0.562
  ** Hessian calculated **
  Cycle:     21 Energy:      -151.665744  Gnorm:      0.392957  CPU:    0.633
  Cycle:     22 Energy:      -151.709608  Gnorm:      0.548977  CPU:    0.674
  Cycle:     23 Energy:      -151.730221  Gnorm:      0.642516  CPU:    0.708
  ** Hessian calculated **
  Cycle:     24 Energy:      -151.943133  Gnorm:      0.388027  CPU:    0.777
  ** Hessian calculated **
  Cycle:     25 Energy:      -152.025215  Gnorm:      0.241410  CPU:    0.847
  Cycle:     26 Energy:      -152.113153  Gnorm:      0.194917  CPU:    0.890
  Cycle:     27 Energy:      -152.176336  Gnorm:      0.190822  CPU:    0.933
  Cycle:     28 Energy:      -152.277861  Gnorm:      0.324206  CPU:    0.976
  Cycle:     29 Energy:      -152.403784  Gnorm:      0.287384  CPU:    1.020
  Cycle:     30 Energy:      -152.659665  Gnorm:      0.518775  CPU:    1.066
  Cycle:     31 Energy:      -152.832511  Gnorm:      0.509494  CPU:    1.106
  Cycle:     32 Energy:      -153.229530  Gnorm:      0.642004  CPU:    1.154
  Cycle:     33 Energy:      -153.507121  Gnorm:      0.564641  CPU:    1.193
  Cycle:     34 Energy:      -153.783492  Gnorm:      0.454893  CPU:    1.241
  ** Hessian calculated **
  Cycle:     35 Energy:      -153.929317  Gnorm:      0.333432  CPU:    1.337
  Cycle:     36 Energy:      -153.951929  Gnorm:      0.282419  CPU:    1.376
  ** Hessian calculated **
  Cycle:     37 Energy:      -154.076629  Gnorm:      0.258103  CPU:    1.462
  Cycle:     38 Energy:      -154.163500  Gnorm:      0.255803  CPU:    1.511
  Cycle:     39 Energy:      -154.251237  Gnorm:      0.211275  CPU:    1.558
  Cycle:     40 Energy:      -154.372785  Gnorm:      0.227750  CPU:    1.606
  Cycle:     41 Energy:      -154.447907  Gnorm:      0.170664  CPU:    1.647
  Cycle:     42 Energy:      -154.479604  Gnorm:      0.112013  CPU:    1.685
  Cycle:     43 Energy:      -154.508022  Gnorm:      0.149430  CPU:    1.732
  Cycle:     44 Energy:      -154.547420  Gnorm:      0.209003  CPU:    1.783
  Cycle:     45 Energy:      -154.650694  Gnorm:      0.187786  CPU:    1.832
  Cycle:     46 Energy:      -154.690060  Gnorm:      0.124857  CPU:    1.871
  ** Hessian calculated **
  Cycle:     47 Energy:      -154.754117  Gnorm:      0.070766  CPU:    1.961
  Cycle:     48 Energy:      -154.763924  Gnorm:      0.044607  CPU:    1.999
  Cycle:     49 Energy:      -154.791427  Gnorm:      0.150476  CPU:    2.059
  Cycle:     50 Energy:      -154.801127  Gnorm:      0.156302  CPU:    2.106
  Cycle:     51 Energy:      -154.815677  Gnorm:      0.115379  CPU:    2.155
  Cycle:     52 Energy:      -154.825168  Gnorm:      0.090241  CPU:    2.202
  Cycle:     53 Energy:      -154.830487  Gnorm:      0.126220  CPU:    2.240
  Cycle:     54 Energy:      -154.844827  Gnorm:      0.082848  CPU:    2.281
  Cycle:     55 Energy:      -154.856817  Gnorm:      0.094958  CPU:    2.329
  Cycle:     56 Energy:      -154.867644  Gnorm:      0.079469  CPU:    2.368
  ** Hessian calculated **
  Cycle:     57 Energy:      -154.890245  Gnorm:      0.086377  CPU:    2.466
  Cycle:     58 Energy:      -154.903049  Gnorm:      0.079629  CPU:    2.514
  Cycle:     59 Energy:      -154.927086  Gnorm:      0.239599  CPU:    2.566
  Cycle:     60 Energy:      -154.953850  Gnorm:      0.396340  CPU:    2.616
  ** Hessian calculated **
  Cycle:     61 Energy:      -155.034835  Gnorm:      0.204050  CPU:    2.699
  Cycle:     62 Energy:      -155.084171  Gnorm:      0.212968  CPU:    2.740
  Cycle:     63 Energy:      -155.123520  Gnorm:      0.210712  CPU:    2.802
  Cycle:     64 Energy:      -155.233517  Gnorm:      0.308975  CPU:    2.853
  Cycle:     65 Energy:      -155.293929  Gnorm:      0.141069  CPU:    2.897
  Cycle:     66 Energy:      -155.323732  Gnorm:      0.127684  CPU:    2.938
  Cycle:     67 Energy:      -155.336069  Gnorm:      0.079927  CPU:    2.980
  Cycle:     68 Energy:      -155.341192  Gnorm:      0.058391  CPU:    3.024
  Cycle:     69 Energy:      -155.344600  Gnorm:      0.047043  CPU:    3.076
  Cycle:     70 Energy:      -155.347558  Gnorm:      0.051152  CPU:    3.127
  ** Hessian calculated **
  Cycle:     71 Energy:      -155.357054  Gnorm:      0.016293  CPU:    3.241
  Cycle:     72 Energy:      -155.358385  Gnorm:      0.005026  CPU:    3.285
  Cycle:     73 Energy:      -155.358399  Gnorm:      0.002752  CPU:    3.337
  ** Hessian calculated **
  Cycle:     74 Energy:      -155.358405  Gnorm:      0.003947  CPU:    3.418
  Cycle:     75 Energy:      -155.358411  Gnorm:      0.002371  CPU:    3.460
  Cycle:     76 Energy:      -155.358422  Gnorm:      0.002708  CPU:    3.511
  Cycle:     77 Energy:      -155.358444  Gnorm:      0.003854  CPU:    3.563
  Cycle:     78 Energy:      -155.358502  Gnorm:      0.005573  CPU:    3.624
  Cycle:     79 Energy:      -155.358743  Gnorm:      0.012061  CPU:    3.715
  ** Hessian calculated **
  Cycle:     80 Energy:      -155.358894  Gnorm:      0.011025  CPU:    3.806
  Cycle:     81 Energy:      -155.359074  Gnorm:      0.013474  CPU:    3.857
  Cycle:     82 Energy:      -155.359322  Gnorm:      0.009883  CPU:    3.908
  Cycle:     83 Energy:      -155.359599  Gnorm:      0.012841  CPU:    3.959
  Cycle:     84 Energy:      -155.360299  Gnorm:      0.032707  CPU:    4.020
  Cycle:     85 Energy:      -155.362761  Gnorm:      0.051638  CPU:    4.090
  Cycle:     86 Energy:      -155.364554  Gnorm:      0.077491  CPU:    4.140
  Cycle:     87 Energy:      -155.371810  Gnorm:      0.116264  CPU:    4.190
  Cycle:     88 Energy:      -155.389318  Gnorm:      0.104283  CPU:    4.239
  Cycle:     89 Energy:      -155.398502  Gnorm:      0.100796  CPU:    4.279
  ** Hessian calculated **
  Cycle:     90 Energy:      -155.418319  Gnorm:      0.141579  CPU:    4.367
  Cycle:     91 Energy:      -155.429707  Gnorm:      0.070831  CPU:    4.407
  Cycle:     92 Energy:      -155.439161  Gnorm:      0.058678  CPU:    4.456
  Cycle:     93 Energy:      -155.449269  Gnorm:      0.062609  CPU:    4.507
  Cycle:     94 Energy:      -155.460314  Gnorm:      0.107090  CPU:    4.557
  Cycle:     95 Energy:      -155.474462  Gnorm:      0.148486  CPU:    4.607
  Cycle:     96 Energy:      -155.496055  Gnorm:      0.121735  CPU:    4.657
  Cycle:     97 Energy:      -155.534904  Gnorm:      0.123005  CPU:    4.707
  Cycle:     98 Energy:      -155.583453  Gnorm:      0.178675  CPU:    4.746
  Cycle:     99 Energy:      -155.617601  Gnorm:      0.188006  CPU:    4.786
  ** Hessian calculated **
  Cycle:    100 Energy:      -155.736344  Gnorm:      0.174262  CPU:    4.873
  Cycle:    101 Energy:      -155.840182  Gnorm:      0.195054  CPU:    4.921
  Cycle:    102 Energy:      -155.931125  Gnorm:      0.263931  CPU:    4.960
  Cycle:    103 Energy:      -155.969357  Gnorm:      0.274371  CPU:    5.007
  Cycle:    104 Energy:      -156.075701  Gnorm:      0.212260  CPU:    5.055
  Cycle:    105 Energy:      -156.302186  Gnorm:      0.510067  CPU:    5.095
  Cycle:    106 Energy:      -156.441723  Gnorm:      1.053399  CPU:    5.124
  Cycle:    107 Energy:      -156.874525  Gnorm:      0.730202  CPU:    5.153
  Cycle:    108 Energy:      -157.179769  Gnorm:      0.409916  CPU:    5.181
  Cycle:    109 Energy:      -157.274620  Gnorm:      0.294786  CPU:    5.216
  ** Hessian calculated **
  Cycle:    110 Energy:      -157.342583  Gnorm:      0.029235  CPU:    5.286
  Cycle:    111 Energy:      -157.343377  Gnorm:      0.003086  CPU:    5.315
  Cycle:    112 Energy:      -157.343410  Gnorm:      0.000873  CPU:    5.343


  **** Optimisation achieved ****


  Final energy =    -157.34341106 eV      
  Final Gnorm  =       0.00014193

  Components of energy : 

--------------------------------------------------------------------------------
  Interatomic potentials     =          12.88982380 eV    
  Monopole - monopole (real) =         -72.84677756 eV    
  Monopole - monopole (recip)=         -97.38645730 eV    
  Monopole - monopole (total)=        -170.23323486 eV    
--------------------------------------------------------------------------------
  Total lattice energy       =        -157.34341106 eV    
--------------------------------------------------------------------------------
  Total lattice energy       =          -15181.2340 kJ/(mole unit cells)
--------------------------------------------------------------------------------

  Final fractional coordinates of atoms :

--------------------------------------------------------------------------------
   No.  Atomic        x           y          z          Radius
        Label       (Frac)      (Frac)     (Frac)       (Angs) 
--------------------------------------------------------------------------------
     1  Ti    c     0.023949    0.977403    0.587173    0.000000
     2  Ti    c     0.619989    0.975322    0.289135    0.000000
     3  Ti    c     0.819203    0.384031    0.189539    0.000000
     4  Ti    c     0.223164    0.386113    0.487573    0.000000
     5  O     c     0.697589    0.985309    0.750340    0.000000
     6  O     c     0.943074    0.040774    0.127608    0.000000
     7  O     c     0.546890    0.300140    0.325686    0.000000
     8  O     c     0.139339    0.683752    0.529478    0.000000
     9  O     c     0.145561    0.376125    0.026371    0.000000
    10  O     c     0.900074    0.320663    0.649106    0.000000
    11  O     c     0.296259    0.061296    0.451025    0.000000
    12  O     c     0.703812    0.677685    0.247226    0.000000
--------------------------------------------------------------------------------

  Final Cartesian lattice vectors (Angstroms) :

        6.372121    0.584909    0.613499
        1.175522    6.371745    0.151585
        0.771077   -0.229353    3.661245


  Final cell parameters and derivatives :

--------------------------------------------------------------------------------
       a            6.428253 Angstrom     dE/de1(xx)    -0.000773 eV/strain
       b            6.481046 Angstrom     dE/de2(yy)    -0.001570 eV/strain
       c            3.748583 Angstrom     dE/de3(zz)    -0.000382 eV/strain
       alpha       89.999922 Degrees      dE/de4(yz)    -0.000023 eV/strain
       beta        73.049266 Degrees      dE/de5(xz)    -0.000075 eV/strain
       gamma       74.247486 Degrees      dE/de6(xy)     0.000375 eV/strain
--------------------------------------------------------------------------------

  Primitive cell volume =           143.245072 Angs**3

  Density of cell =      3.704029 g/cm**3

  Non-primitive cell volume =           143.245072 Angs**3


  Final internal derivatives :

--------------------------------------------------------------------------------
   No.  Atomic          a             b             c           Radius
        Label          (eV)          (eV)          (eV)        (eV/Angs)
--------------------------------------------------------------------------------
      1 Ti    c       0.000000      0.000000      0.000000      0.000000
      2 Ti    c       0.001324     -0.000003     -0.000515      0.000000
      3 Ti    c       0.001145      0.000331      0.000292      0.000000
      4 Ti    c       0.001359      0.000072      0.000415      0.000000
      5 O     c       0.000396     -0.000085     -0.000107      0.000000
      6 O     c      -0.001333      0.000090      0.000470      0.000000
      7 O     c      -0.002750     -0.001177     -0.000313      0.000000
      8 O     c       0.000021      0.002627     -0.000268      0.000000
      9 O     c      -0.000978     -0.000495      0.000139      0.000000
     10 O     c       0.000738      0.000682     -0.000222      0.000000
     11 O     c       0.000625      0.000785      0.000245      0.000000
     12 O     c      -0.000359      0.000245     -0.000047      0.000000
--------------------------------------------------------------------------------
  Maximum abs         0.002750      0.002627      0.000515      0.000000
--------------------------------------------------------------------------------


  Time to end of optimisation =       5.3709 seconds


  Peak dynamic memory used =       1.84 MB 


  Timing analysis for GULP :

--------------------------------------------------------------------------------
  Task / Subroutine                                          Time (Seconds)
--------------------------------------------------------------------------------
  Calculation of reciprocal space energy and derivatives          0.1757
  Calculation of real space energy and derivatives                5.1595
  Calculation and manipulation of Hessian matrix                  0.0016
  Calculation of matrix inversion                                 0.0028
  Global summation overhead                                       0.0007
--------------------------------------------------------------------------------
  Total CPU time                                                  5.3709
--------------------------------------------------------------------------------


  Job Finished at 11:15.30 29th May        2024                               

