********************************************************************************
*                       GENERAL UTILITY LATTICE PROGRAM                        *
*                                 Julian Gale                                  *
*                       Curtin Institute for Computation                       *
*                    School of Molecular and Life Sciences                     *
*                    Curtin University, Western Australia                      *
********************************************************************************
* Version = 6.0.0 * Last modified =  12th July 2021                            *
********************************************************************************
*  optimise     - perform optimisation run                                     *
*  conp         - constant pressure calculation                                *
*  conjugate    - use conjugate gradients minimiser                            *
********************************************************************************

  Job Started  at 11:12.05 29th May        2024                               

  Number of CPUs =     1


  Total number of configurations input =      1

********************************************************************************
*  Input for Configuration =   1                                               *
********************************************************************************

  Formula = Ti4O8                                                       

  Number of irreducible atoms/shells =      12


  Total number atoms/shells =      12

  Dimensionality = 3               :  Bulk   



  Cartesian lattice vectors (Angstroms) :

        4.937003   -0.764949   -0.291393
       -1.685728    6.027097   -1.411913
        0.154098   -0.880906    4.923750

  Cell parameters (Angstroms/Degrees):

  a =       5.0044    alpha = 112.9538
  b =       6.4157    beta  =  90.0003
  c =       5.0043    gamma = 112.9542

  Initial cell volume =         134.024851 Angs**3

  Temperature of configuration =   0.00     K 

  Pressure of configuration =         0.000 GPa 

  Fractional coordinates of asymmetric unit :

--------------------------------------------------------------------------------
   No.  Atomic       x           y          z         Charge      Occupancy
        Label      (Frac)      (Frac)     (Frac)        (e)         (Frac)  
--------------------------------------------------------------------------------
      1 Ti    c    0.109945    0.055945    0.070451     2.19600    1.000000    
      2 Ti    c    0.467802 *  0.274027 *  0.358862 *   2.19600    1.000000    
      3 Ti    c    0.885854 *  0.152227 *  0.776927 *   2.19600    1.000000    
      4 Ti    c    0.418865 *  0.534914 *  0.259148 *   2.19600    1.000000    
      5 O     c    0.525268 *  0.849267 *  0.825864 *  -1.09800    1.000000    
      6 O     c    0.707299 *  0.752986 *  0.119387 *  -1.09800    1.000000    
      7 O     c    0.167415 *  0.631185 *  0.537439 *  -1.09800    1.000000    
      8 O     c    0.815552 *  0.370330 *  0.176878 *  -1.09800    1.000000    
      9 O     c    0.216354 *  0.370301 *  0.637149 *  -1.09800    1.000000    
     10 O     c    0.777618 *  0.534902 *  0.719454 *  -1.09800    1.000000    
     11 O     c    0.607571 *  0.055956 *  0.429208 *  -1.09800    1.000000    
     12 O     c    0.027611 *  0.849263 *  0.467114 *  -1.09800    1.000000    
--------------------------------------------------------------------------------



********************************************************************************
*  General input information                                                   *
********************************************************************************

  Species output for all configurations : 

--------------------------------------------------------------------------------
  Species    Type    Atomic    Atomic    Charge       Radii (Angs)     Library
                     Number     Mass       (e)     Cova   Ionic  VDW   Symbol
--------------------------------------------------------------------------------
    Ti       Core       22      47.88   2.196000   1.470  0.000  2.190          
    O        Core        8      16.00  -1.098000   0.730  0.000  1.360          
--------------------------------------------------------------------------------


  Lattice summation method               =    Ewald          (3-D)
                                         =    Parry          (2-D)
                                         =    Saunders et al (1-D)
  Accuracy factor for lattice sums       =   12.000


  Analytic derivatives to be used

  Time limit = Infinity

  Maximum range for interatomic potentials =    100000.000000 Angstroms

  General interatomic potentials :

--------------------------------------------------------------------------------
Atom  Types   Potential      Parameter       Value         Units   Cutoffs(Ang)
  1     2                                                            Min /  Max 
--------------------------------------------------------------------------------
Ti   c Ti   c Buckingham    Buckingham A     31120.100    eV        0.000 15.000
                            Buckingham rho  0.15400000    Ang       
                            Buckingham C     5.2500000    eV*Ang^6  
--------------------------------------------------------------------------------
O    c O    c Buckingham    Buckingham A     11782.700    eV        0.000 15.000
                            Buckingham rho  0.23400000    Ang       
                            Buckingham C     30.220000    eV*Ang^6  
--------------------------------------------------------------------------------
O    c Ti   c Buckingham    Buckingham A     16957.500    eV        0.000 15.000
                            Buckingham rho  0.19400000    Ang       
                            Buckingham C     12.590000    eV*Ang^6  
--------------------------------------------------------------------------------
Ti   c Ti   c Lennard       Lennard-Jones A  1.0000000    eV*Ang^m  0.000 15.000
                            Lennard-Jones B  0.0000000    eV*Ang^n  
                            Exponent m        12          None
                            Exponent n         6          None
--------------------------------------------------------------------------------
O    c O    c Lennard       Lennard-Jones A  1.0000000    eV*Ang^m  0.000 15.000
                            Lennard-Jones B  0.0000000    eV*Ang^n  
                            Exponent m        12          None
                            Exponent n         6          None
--------------------------------------------------------------------------------
O    c Ti   c Lennard       Lennard-Jones A  1.0000000    eV*Ang^m  0.000 15.000
                            Lennard-Jones B  0.0000000    eV*Ang^n  
                            Exponent m        12          None
                            Exponent n         6          None
--------------------------------------------------------------------------------

********************************************************************************
*  Output for configuration   1                                                *
********************************************************************************


  Components of energy : 

--------------------------------------------------------------------------------
  Interatomic potentials     =          16.18968076 eV    
  Monopole - monopole (real) =         -14.75614046 eV    
  Monopole - monopole (recip)=         -88.93280367 eV    
  Monopole - monopole (total)=        -103.68894413 eV    
--------------------------------------------------------------------------------
  Total lattice energy       =         -87.49926337 eV    
--------------------------------------------------------------------------------
  Total lattice energy       =           -8442.3414 kJ/(mole unit cells)
--------------------------------------------------------------------------------


  Number of variables =       39

  Maximum number of calculations  =          1000
  Maximum Hessian update interval =            10
  Maximum step size               =   1.000000000
  Maximum parameter tolerance     =   0.000010000
  Maximum function  tolerance     =   0.000010000
  Maximum gradient  tolerance     =   0.001000000
  Maximum gradient  component     =   0.010000000

  Symmetry not applied to optimisation

  Cell parameters to be optimised using strains

  Conjugate gradient optimiser to be used

  Lower half triangular hessian to be used

  Minimiser to switch to BFGS with exact hessian
  When gradient norm is less than     0.500000

  Start of bulk optimisation :

  Cycle:      0 Energy:       -87.499263  Gnorm:      8.064093  CPU:    0.025
  Cycle:      1 Energy:      -110.962887  Gnorm:      9.684707  CPU:    0.055
  Cycle:      2 Energy:      -120.162824  Gnorm:      3.788727  CPU:    0.084
  Cycle:      3 Energy:      -130.852047  Gnorm:      2.972090  CPU:    0.134
  Cycle:      4 Energy:      -134.110620  Gnorm:      2.153754  CPU:    0.170
  Cycle:      5 Energy:      -135.728904  Gnorm:      5.648448  CPU:    0.206
  Cycle:      6 Energy:      -135.734563  Gnorm:      5.891894  CPU:    0.251
  Cycle:      7 Energy:      -138.140291  Gnorm:      1.564540  CPU:    0.295
  Cycle:      8 Energy:      -139.844457  Gnorm:      1.446057  CPU:    0.340
  Cycle:      9 Energy:      -142.778523  Gnorm:      1.893195  CPU:    0.387
  Cycle:     10 Energy:      -143.953706  Gnorm:      1.155993  CPU:    0.435
  Cycle:     11 Energy:      -145.192384  Gnorm:      1.517634  CPU:    0.483
  Cycle:     12 Energy:      -146.322964  Gnorm:      1.971416  CPU:    0.523
  Cycle:     13 Energy:      -146.927111  Gnorm:      1.080512  CPU:    0.572
  Cycle:     14 Energy:      -147.288760  Gnorm:      0.671676  CPU:    0.621
  Cycle:     15 Energy:      -147.639836  Gnorm:      0.768635  CPU:    0.670
  Cycle:     16 Energy:      -147.903096  Gnorm:      0.562145  CPU:    0.711
  Cycle:     17 Energy:      -148.507146  Gnorm:      0.754100  CPU:    0.771
  Cycle:     18 Energy:      -149.685424  Gnorm:      0.963102  CPU:    0.823
  Cycle:     19 Energy:      -150.185251  Gnorm:      0.804070  CPU:    0.875
  Cycle:     20 Energy:      -150.425252  Gnorm:      0.533044  CPU:    0.917
  Cycle:     21 Energy:      -150.719527  Gnorm:      0.416894  CPU:    0.970
  ** Hessian calculated **
  Cycle:     22 Energy:      -150.985296  Gnorm:      0.394818  CPU:    1.065
  Cycle:     23 Energy:      -151.269886  Gnorm:      0.406132  CPU:    1.119
  Cycle:     24 Energy:      -151.516608  Gnorm:      0.294924  CPU:    1.173
  Cycle:     25 Energy:      -151.641655  Gnorm:      0.350391  CPU:    1.216
  Cycle:     26 Energy:      -151.878214  Gnorm:      0.396798  CPU:    1.271
  Cycle:     27 Energy:      -152.157809  Gnorm:      0.516460  CPU:    1.325
  Cycle:     28 Energy:      -152.521275  Gnorm:      0.345297  CPU:    1.380
  Cycle:     29 Energy:      -152.759797  Gnorm:      0.365692  CPU:    1.423
  Cycle:     30 Energy:      -152.983357  Gnorm:      0.419468  CPU:    1.476
  Cycle:     31 Energy:      -153.184708  Gnorm:      0.368084  CPU:    1.519
  ** Hessian calculated **
  Cycle:     32 Energy:      -153.320196  Gnorm:      0.281813  CPU:    1.605
  Cycle:     33 Energy:      -153.429959  Gnorm:      0.278411  CPU:    1.659
  Cycle:     34 Energy:      -153.619948  Gnorm:      0.502564  CPU:    1.711
  Cycle:     35 Energy:      -154.012524  Gnorm:      0.498580  CPU:    1.765
  Cycle:     36 Energy:      -154.424083  Gnorm:      0.504051  CPU:    1.807
  Cycle:     37 Energy:      -154.765002  Gnorm:      0.478387  CPU:    1.860
  Cycle:     38 Energy:      -155.050891  Gnorm:      0.505288  CPU:    1.904
  Cycle:     39 Energy:      -155.318151  Gnorm:      0.427612  CPU:    1.947
  Cycle:     40 Energy:      -155.791538  Gnorm:      0.537224  CPU:    2.001
  Cycle:     41 Energy:      -156.088243  Gnorm:      0.376850  CPU:    2.044
  ** Hessian calculated **
  Cycle:     42 Energy:      -156.240691  Gnorm:      0.297577  CPU:    2.132
  Cycle:     43 Energy:      -156.344364  Gnorm:      0.238603  CPU:    2.186
  Cycle:     44 Energy:      -156.408486  Gnorm:      0.177122  CPU:    2.229
  Cycle:     45 Energy:      -156.463352  Gnorm:      0.207691  CPU:    2.282
  Cycle:     46 Energy:      -156.521934  Gnorm:      0.190106  CPU:    2.336
  Cycle:     47 Energy:      -156.586554  Gnorm:      0.249629  CPU:    2.390
  Cycle:     48 Energy:      -156.720452  Gnorm:      0.283829  CPU:    2.445
  Cycle:     49 Energy:      -156.916361  Gnorm:      0.468404  CPU:    2.501
  Cycle:     50 Energy:      -157.186434  Gnorm:      0.415446  CPU:    2.549
  Cycle:     51 Energy:      -157.373441  Gnorm:      0.418191  CPU:    2.595
  ** Hessian calculated **
  Cycle:     52 Energy:      -157.764406  Gnorm:      0.333530  CPU:    2.711
  Cycle:     53 Energy:      -158.010693  Gnorm:      0.206884  CPU:    2.758
  Cycle:     54 Energy:      -158.058853  Gnorm:      0.066931  CPU:    2.805
  Cycle:     55 Energy:      -158.067900  Gnorm:      0.024541  CPU:    2.852
  Cycle:     56 Energy:      -158.069167  Gnorm:      0.009818  CPU:    2.899
  Cycle:     57 Energy:      -158.069327  Gnorm:      0.004869  CPU:    2.945
  Cycle:     58 Energy:      -158.069356  Gnorm:      0.001997  CPU:    2.993
  Cycle:     59 Energy:      -158.069360  Gnorm:      0.000708  CPU:    3.039


  **** Optimisation achieved ****


  Final energy =    -158.06936072 eV      
  Final Gnorm  =       0.00018917

  Components of energy : 

--------------------------------------------------------------------------------
  Interatomic potentials     =          11.93814529 eV    
  Monopole - monopole (real) =         -65.75539024 eV    
  Monopole - monopole (recip)=        -104.25211577 eV    
  Monopole - monopole (total)=        -170.00750601 eV    
--------------------------------------------------------------------------------
  Total lattice energy       =        -158.06936072 eV    
--------------------------------------------------------------------------------
  Total lattice energy       =          -15251.2770 kJ/(mole unit cells)
--------------------------------------------------------------------------------

  Final fractional coordinates of atoms :

--------------------------------------------------------------------------------
   No.  Atomic        x           y          z          Radius
        Label       (Frac)      (Frac)     (Frac)       (Angs) 
--------------------------------------------------------------------------------
     1  Ti    c     0.109945    0.055945    0.070451    0.000000
     2  Ti    c     0.673516    0.492372    0.506878    0.000000
     3  Ti    c     0.923516    0.242370    0.756877    0.000000
     4  Ti    c     0.359942    0.805946    0.320445    0.000000
     5  O     c     0.411035    0.129379    0.216357    0.000000
     6  O     c     0.733517    0.951866    0.019373    0.000000
     7  O     c     0.214028    0.432372    0.393876    0.000000
     8  O     c     0.996950    0.543462    0.130441    0.000000
     9  O     c     0.299946    0.346457    0.807958    0.000000
    10  O     c     0.036519    0.754868    0.696877    0.000000
    11  O     c     0.622436    0.168948    0.610957    0.000000
    12  O     c     0.819440    0.865948    0.433451    0.000000
--------------------------------------------------------------------------------

  Final Cartesian lattice vectors (Angstroms) :

        6.000922   -1.236455    0.481842
       -3.239505    5.107089   -1.093222
        1.480113   -0.337736    4.547107


  Final cell parameters and derivatives :

--------------------------------------------------------------------------------
       a            6.145897 Angstrom     dE/de1(xx)    -0.000043 eV/strain
       b            6.145884 Angstrom     dE/de2(yy)     0.000040 eV/strain
       c            4.793848 Angstrom     dE/de3(zz)     0.000463 eV/strain
       alpha      112.955198 Degrees      dE/de4(yz)    -0.001087 eV/strain
       beta        67.044967 Degrees      dE/de5(xz)     0.000686 eV/strain
       gamma      134.090425 Degrees      dE/de6(xy)     0.000743 eV/strain
--------------------------------------------------------------------------------

  Primitive cell volume =           117.812773 Angs**3

  Density of cell =      4.503619 g/cm**3

  Non-primitive cell volume =           117.812773 Angs**3


  Final internal derivatives :

--------------------------------------------------------------------------------
   No.  Atomic          a             b             c           Radius
        Label          (eV)          (eV)          (eV)        (eV/Angs)
--------------------------------------------------------------------------------
      1 Ti    c       0.000000      0.000000      0.000000      0.000000
      2 Ti    c      -0.001050     -0.000153      0.000645      0.000000
      3 Ti    c       0.000899     -0.000959      0.000833      0.000000
      4 Ti    c      -0.000968      0.001298     -0.001907      0.000000
      5 O     c      -0.000208      0.000892     -0.001401      0.000000
      6 O     c      -0.000163      0.000101      0.001189      0.000000
      7 O     c       0.002394     -0.003956      0.001023      0.000000
      8 O     c      -0.000744      0.001395     -0.001576      0.000000
      9 O     c      -0.000055      0.000154     -0.000262      0.000000
     10 O     c       0.000723      0.000167      0.001603      0.000000
     11 O     c      -0.001540      0.001211     -0.000110      0.000000
     12 O     c      -0.000071      0.001419     -0.001017      0.000000
--------------------------------------------------------------------------------
  Maximum abs         0.002394      0.003956      0.001907      0.000000
--------------------------------------------------------------------------------


  Time to end of optimisation =       3.0861 seconds


  Peak dynamic memory used =       1.84 MB 


  Timing analysis for GULP :

--------------------------------------------------------------------------------
  Task / Subroutine                                          Time (Seconds)
--------------------------------------------------------------------------------
  Calculation of reciprocal space energy and derivatives          0.0759
  Calculation of real space energy and derivatives                2.9886
  Calculation and manipulation of Hessian matrix                  0.0004
  Calculation of matrix inversion                                 0.0008
  Global summation overhead                                       0.0004
--------------------------------------------------------------------------------
  Total CPU time                                                  3.0862
--------------------------------------------------------------------------------


  Job Finished at 11:12.08 29th May        2024                               

