********************************************************************************
*                       GENERAL UTILITY LATTICE PROGRAM                        *
*                                 Julian Gale                                  *
*                       Curtin Institute for Computation                       *
*                    School of Molecular and Life Sciences                     *
*                    Curtin University, Western Australia                      *
********************************************************************************
* Version = 6.0.0 * Last modified =  12th July 2021                            *
********************************************************************************
*  optimise     - perform optimisation run                                     *
*  conp         - constant pressure calculation                                *
*  conjugate    - use conjugate gradients minimiser                            *
********************************************************************************

  Job Started  at 11:12.11 29th May        2024                               

  Number of CPUs =     1


  Total number of configurations input =      1

********************************************************************************
*  Input for Configuration =   1                                               *
********************************************************************************

  Formula = Ti4O8                                                       

  Number of irreducible atoms/shells =      12


  Total number atoms/shells =      12

  Dimensionality = 3               :  Bulk   



  Cartesian lattice vectors (Angstroms) :

        4.024532   -4.662405    0.646113
       -4.263035   11.402912   -0.571718
       -0.641642   -0.699374    5.023592

  Cell parameters (Angstroms/Degrees):

  a =       6.1929    alpha =  97.4805
  b =      12.1872    beta  =  82.8801
  c =       5.1125    gamma = 159.4926

  Initial cell volume =         134.024851 Angs**3

  Temperature of configuration =   0.00     K 

  Pressure of configuration =         0.000 GPa 

  Fractional coordinates of asymmetric unit :

--------------------------------------------------------------------------------
   No.  Atomic       x           y          z         Charge      Occupancy
        Label      (Frac)      (Frac)     (Frac)        (e)         (Frac)  
--------------------------------------------------------------------------------
      1 Ti    c    0.159795    0.081136    0.333884     2.19600    1.000000    
      2 Ti    c    0.440201 *  0.081135 *  0.333885 *   2.19600    1.000000    
      3 Ti    c    0.440201 *  0.361540 *  0.053478 *   2.19600    1.000000    
      4 Ti    c    0.159796 *  0.361541 *  0.053478 *   2.19600    1.000000    
      5 O     c    0.270116 *  0.361541 *  0.223565 *  -1.09800    1.000000    
      6 O     c    0.159795 *  0.191456 *  0.053480 *  -1.09800    1.000000    
      7 O     c    0.440201 *  0.251221 *  0.333884 *  -1.09800    1.000000    
      8 O     c    0.329881 *  0.081135 *  0.163799 *  -1.09800    1.000000    
      9 O     c    0.159796 *  0.531627 *  0.053478 *  -1.09800    1.000000    
     10 O     c    0.550520 *  0.081135 *  0.503971 *  -1.09800    1.000000    
     11 O     c    0.049476 *  0.361541 *  0.444203 *  -1.09800    1.000000    
     12 O     c    0.440201 *  0.471861 *  0.333884 *  -1.09800    1.000000    
--------------------------------------------------------------------------------



********************************************************************************
*  General input information                                                   *
********************************************************************************

  Species output for all configurations : 

--------------------------------------------------------------------------------
  Species    Type    Atomic    Atomic    Charge       Radii (Angs)     Library
                     Number     Mass       (e)     Cova   Ionic  VDW   Symbol
--------------------------------------------------------------------------------
    Ti       Core       22      47.88   2.196000   1.470  0.000  2.190          
    O        Core        8      16.00  -1.098000   0.730  0.000  1.360          
--------------------------------------------------------------------------------


  Lattice summation method               =    Ewald          (3-D)
                                         =    Parry          (2-D)
                                         =    Saunders et al (1-D)
  Accuracy factor for lattice sums       =   12.000


  Analytic derivatives to be used

  Time limit = Infinity

  Maximum range for interatomic potentials =    100000.000000 Angstroms

  General interatomic potentials :

--------------------------------------------------------------------------------
Atom  Types   Potential      Parameter       Value         Units   Cutoffs(Ang)
  1     2                                                            Min /  Max 
--------------------------------------------------------------------------------
Ti   c Ti   c Buckingham    Buckingham A     31120.100    eV        0.000 15.000
                            Buckingham rho  0.15400000    Ang       
                            Buckingham C     5.2500000    eV*Ang^6  
--------------------------------------------------------------------------------
O    c O    c Buckingham    Buckingham A     11782.700    eV        0.000 15.000
                            Buckingham rho  0.23400000    Ang       
                            Buckingham C     30.220000    eV*Ang^6  
--------------------------------------------------------------------------------
O    c Ti   c Buckingham    Buckingham A     16957.500    eV        0.000 15.000
                            Buckingham rho  0.19400000    Ang       
                            Buckingham C     12.590000    eV*Ang^6  
--------------------------------------------------------------------------------
Ti   c Ti   c Lennard       Lennard-Jones A  1.0000000    eV*Ang^m  0.000 15.000
                            Lennard-Jones B  0.0000000    eV*Ang^n  
                            Exponent m        12          None
                            Exponent n         6          None
--------------------------------------------------------------------------------
O    c O    c Lennard       Lennard-Jones A  1.0000000    eV*Ang^m  0.000 15.000
                            Lennard-Jones B  0.0000000    eV*Ang^n  
                            Exponent m        12          None
                            Exponent n         6          None
--------------------------------------------------------------------------------
O    c Ti   c Lennard       Lennard-Jones A  1.0000000    eV*Ang^m  0.000 15.000
                            Lennard-Jones B  0.0000000    eV*Ang^n  
                            Exponent m        12          None
                            Exponent n         6          None
--------------------------------------------------------------------------------

********************************************************************************
*  Output for configuration   1                                                *
********************************************************************************


  Components of energy : 

--------------------------------------------------------------------------------
  Interatomic potentials     =        1265.38243196 eV    
  Monopole - monopole (real) =         -99.02989826 eV    
  Monopole - monopole (recip)=         -97.55159215 eV    
  Monopole - monopole (total)=        -196.58149041 eV    
--------------------------------------------------------------------------------
  Total lattice energy       =        1068.80094155 eV    
--------------------------------------------------------------------------------
  Total lattice energy       =          103122.9527 kJ/(mole unit cells)
--------------------------------------------------------------------------------


  Number of variables =       39

  Maximum number of calculations  =          1000
  Maximum Hessian update interval =            10
  Maximum step size               =   1.000000000
  Maximum parameter tolerance     =   0.000010000
  Maximum function  tolerance     =   0.000010000
  Maximum gradient  tolerance     =   0.001000000
  Maximum gradient  component     =   0.010000000

  Symmetry not applied to optimisation

  Cell parameters to be optimised using strains

  Conjugate gradient optimiser to be used

  Lower half triangular hessian to be used

  Minimiser to switch to BFGS with exact hessian
  When gradient norm is less than     0.500000

  Start of bulk optimisation :

  Cycle:      0 Energy:      1068.800942  Gnorm:    623.759181  CPU:    0.038
  Cycle:      1 Energy:       258.822644  Gnorm:    156.105993  CPU:    0.119
  Cycle:      2 Energy:        50.176892  Gnorm:     60.058224  CPU:    0.185
  Cycle:      3 Energy:         1.358059  Gnorm:     65.894208  CPU:    0.252
  Cycle:      4 Energy:       -36.625161  Gnorm:     33.178882  CPU:    0.317
  Cycle:      5 Energy:       -58.872275  Gnorm:     34.105355  CPU:    0.395
  Cycle:      6 Energy:      -106.113260  Gnorm:     14.202743  CPU:    0.496
  Cycle:      7 Energy:      -118.538737  Gnorm:     12.523286  CPU:    0.559
  Cycle:      8 Energy:      -123.483775  Gnorm:      7.571678  CPU:    0.609
  Cycle:      9 Energy:      -129.443940  Gnorm:      5.535151  CPU:    0.671
  Cycle:     10 Energy:      -131.195810  Gnorm:      3.444133  CPU:    0.721
  Cycle:     11 Energy:      -132.882255  Gnorm:      5.102365  CPU:    0.783
  Cycle:     12 Energy:      -135.228749  Gnorm:      3.917865  CPU:    0.845
  Cycle:     13 Energy:      -136.925316  Gnorm:      2.798194  CPU:    0.895
  Cycle:     14 Energy:      -138.468230  Gnorm:      2.397592  CPU:    0.957
  Cycle:     15 Energy:      -139.749260  Gnorm:      3.233647  CPU:    1.018
  Cycle:     16 Energy:      -141.409162  Gnorm:      2.667885  CPU:    1.068
  Cycle:     17 Energy:      -142.116885  Gnorm:      1.199102  CPU:    1.118
  Cycle:     18 Energy:      -142.335985  Gnorm:      0.971549  CPU:    1.180
  Cycle:     19 Energy:      -142.519262  Gnorm:      1.113105  CPU:    1.241
  Cycle:     20 Energy:      -142.624041  Gnorm:      0.722863  CPU:    1.291
  Cycle:     21 Energy:      -142.750299  Gnorm:      0.853899  CPU:    1.353
  Cycle:     22 Energy:      -143.058080  Gnorm:      1.403055  CPU:    1.414
  Cycle:     23 Energy:      -143.524268  Gnorm:      1.041272  CPU:    1.476
  Cycle:     24 Energy:      -143.711196  Gnorm:      0.981079  CPU:    1.522
  Cycle:     25 Energy:      -143.854988  Gnorm:      0.700506  CPU:    1.557
  Cycle:     26 Energy:      -144.054382  Gnorm:      1.344245  CPU:    1.600
  Cycle:     27 Energy:      -144.503389  Gnorm:      1.624947  CPU:    1.633
  Cycle:     28 Energy:      -144.958477  Gnorm:      1.134705  CPU:    1.664
  Cycle:     29 Energy:      -145.158591  Gnorm:      1.024425  CPU:    1.689
  Cycle:     30 Energy:      -145.262837  Gnorm:      0.545833  CPU:    1.715
  Cycle:     31 Energy:      -145.314740  Gnorm:      0.577284  CPU:    1.746
  Cycle:     32 Energy:      -145.490205  Gnorm:      0.932261  CPU:    1.777
  Cycle:     33 Energy:      -145.634656  Gnorm:      0.982711  CPU:    1.802
  Cycle:     34 Energy:      -145.894309  Gnorm:      1.318013  CPU:    1.828
  Cycle:     35 Energy:      -146.184504  Gnorm:      1.018839  CPU:    1.859
  Cycle:     36 Energy:      -146.442310  Gnorm:      0.931758  CPU:    1.890
  Cycle:     37 Energy:      -146.581564  Gnorm:      1.011872  CPU:    1.916
  Cycle:     38 Energy:      -146.760339  Gnorm:      1.210657  CPU:    1.947
  Cycle:     39 Energy:      -147.207205  Gnorm:      1.223126  CPU:    1.979
  Cycle:     40 Energy:      -147.370662  Gnorm:      0.548760  CPU:    2.005
  Cycle:     41 Energy:      -147.413277  Gnorm:      0.475909  CPU:    2.036
  ** Hessian calculated **
  Cycle:     42 Energy:      -147.621538  Gnorm:      0.674558  CPU:    2.100
  Cycle:     43 Energy:      -147.779342  Gnorm:      0.869594  CPU:    2.133
  Cycle:     44 Energy:      -148.285138  Gnorm:      1.899622  CPU:    2.166
  Cycle:     45 Energy:      -148.689614  Gnorm:      2.162090  CPU:    2.210
  Cycle:     46 Energy:      -149.206464  Gnorm:      1.998933  CPU:    2.250
  Cycle:     47 Energy:      -149.775347  Gnorm:      0.856239  CPU:    2.298
  Cycle:     48 Energy:      -150.198744  Gnorm:      1.064863  CPU:    2.359
  Cycle:     49 Energy:      -150.495473  Gnorm:      1.236092  CPU:    2.431
  Cycle:     50 Energy:      -150.727012  Gnorm:      0.638462  CPU:    2.506
  Cycle:     51 Energy:      -150.858730  Gnorm:      0.672995  CPU:    2.567
  ** Hessian calculated **
  Cycle:     52 Energy:      -150.932134  Gnorm:      0.653084  CPU:    2.673
  Cycle:     53 Energy:      -150.972210  Gnorm:      0.393322  CPU:    2.749
  Cycle:     54 Energy:      -151.020446  Gnorm:      0.395780  CPU:    2.825
  Cycle:     55 Energy:      -151.086382  Gnorm:      0.432842  CPU:    2.901
  Cycle:     56 Energy:      -151.184314  Gnorm:      0.948781  CPU:    2.977
  Cycle:     57 Energy:      -151.404120  Gnorm:      0.973220  CPU:    3.056
  Cycle:     58 Energy:      -151.666869  Gnorm:      0.786307  CPU:    3.137
  Cycle:     59 Energy:      -151.856792  Gnorm:      0.568759  CPU:    3.203
  Cycle:     60 Energy:      -151.972408  Gnorm:      0.395384  CPU:    3.269
  Cycle:     61 Energy:      -152.138183  Gnorm:      0.712188  CPU:    3.352
  ** Hessian calculated **
  Cycle:     62 Energy:      -152.225844  Gnorm:      0.465482  CPU:    3.466
  Cycle:     63 Energy:      -152.262569  Gnorm:      0.628181  CPU:    3.534
  Cycle:     64 Energy:      -152.413059  Gnorm:      1.210174  CPU:    3.636
  Cycle:     65 Energy:      -152.565780  Gnorm:      0.640734  CPU:    3.720
  Cycle:     66 Energy:      -152.675850  Gnorm:      0.606056  CPU:    3.787
  Cycle:     67 Energy:      -152.793788  Gnorm:      0.561581  CPU:    3.856
  Cycle:     68 Energy:      -152.889254  Gnorm:      0.579513  CPU:    3.940
  Cycle:     69 Energy:      -153.018822  Gnorm:      0.904921  CPU:    4.023
  Cycle:     70 Energy:      -153.337987  Gnorm:      0.966394  CPU:    4.106
  Cycle:     71 Energy:      -153.524292  Gnorm:      0.916165  CPU:    4.172
  ** Hessian calculated **
  Cycle:     72 Energy:      -154.711215  Gnorm:      0.710540  CPU:    4.333
  ** Hessian calculated **
  Cycle:     73 Energy:      -154.934766  Gnorm:      0.919128  CPU:    4.464
  ** Hessian calculated **
  Cycle:     74 Energy:      -155.007196  Gnorm:      0.411229  CPU:    4.599
  Cycle:     75 Energy:      -155.036750  Gnorm:      0.246313  CPU:    4.688
  Cycle:     76 Energy:      -155.052056  Gnorm:      0.231168  CPU:    4.760
  Cycle:     77 Energy:      -155.060895  Gnorm:      0.156634  CPU:    4.833
  Cycle:     78 Energy:      -155.064454  Gnorm:      0.122819  CPU:    4.905
  Cycle:     79 Energy:      -155.067444  Gnorm:      0.097885  CPU:    4.995
  Cycle:     80 Energy:      -155.069437  Gnorm:      0.087704  CPU:    5.067
  Cycle:     81 Energy:      -155.073116  Gnorm:      0.077122  CPU:    5.157
  Cycle:     82 Energy:      -155.078091  Gnorm:      0.196223  CPU:    5.247
  Cycle:     83 Energy:      -155.087456  Gnorm:      0.098331  CPU:    5.336
  ** Hessian calculated **
  Cycle:     84 Energy:      -155.116596  Gnorm:      0.103906  CPU:    5.524
  Cycle:     85 Energy:      -155.139399  Gnorm:      0.161407  CPU:    5.631
  ** Hessian calculated **
  Cycle:     86 Energy:      -155.143251  Gnorm:      0.125693  CPU:    5.749
  Cycle:     87 Energy:      -155.145253  Gnorm:      0.095502  CPU:    5.839
  Cycle:     88 Energy:      -155.146902  Gnorm:      0.069309  CPU:    5.930
  Cycle:     89 Energy:      -155.147675  Gnorm:      0.048381  CPU:    6.002
  Cycle:     90 Energy:      -155.148304  Gnorm:      0.046301  CPU:    6.093
  Cycle:     91 Energy:      -155.150016  Gnorm:      0.071169  CPU:    6.183
  Cycle:     92 Energy:      -155.152398  Gnorm:      0.129994  CPU:    6.273
  Cycle:     93 Energy:      -155.155425  Gnorm:      0.123996  CPU:    6.363
  Cycle:     94 Energy:      -155.161950  Gnorm:      0.119298  CPU:    6.454
  Cycle:     95 Energy:      -155.169535  Gnorm:      0.188199  CPU:    6.544
  ** Hessian calculated **
  Cycle:     96 Energy:      -155.174001  Gnorm:      0.105987  CPU:    6.661
  Cycle:     97 Energy:      -155.177900  Gnorm:      0.077322  CPU:    6.751
  Cycle:     98 Energy:      -155.179806  Gnorm:      0.107601  CPU:    6.824
  Cycle:     99 Energy:      -155.181367  Gnorm:      0.084683  CPU:    6.914
  Cycle:    100 Energy:      -155.182919  Gnorm:      0.072634  CPU:    6.987
  Cycle:    101 Energy:      -155.183993  Gnorm:      0.062086  CPU:    7.059
  Cycle:    102 Energy:      -155.184898  Gnorm:      0.059450  CPU:    7.150
  Cycle:    103 Energy:      -155.185991  Gnorm:      0.053336  CPU:    7.241
  Cycle:    104 Energy:      -155.186682  Gnorm:      0.052057  CPU:    7.315
  Cycle:    105 Energy:      -155.188860  Gnorm:      0.116117  CPU:    7.424
  ** Hessian calculated **
  Cycle:    106 Energy:      -155.190060  Gnorm:      0.056905  CPU:    7.542
  Cycle:    107 Energy:      -155.190788  Gnorm:      0.053713  CPU:    7.634
  Cycle:    108 Energy:      -155.191569  Gnorm:      0.045229  CPU:    7.725
  Cycle:    109 Energy:      -155.192482  Gnorm:      0.060252  CPU:    7.816
  Cycle:    110 Energy:      -155.193149  Gnorm:      0.063420  CPU:    7.890
  Cycle:    111 Energy:      -155.193882  Gnorm:      0.064197  CPU:    7.981
  Cycle:    112 Energy:      -155.194969  Gnorm:      0.068116  CPU:    8.071
  Cycle:    113 Energy:      -155.196672  Gnorm:      0.073381  CPU:    8.160
  Cycle:    114 Energy:      -155.198511  Gnorm:      0.095323  CPU:    8.250
  Cycle:    115 Energy:      -155.201311  Gnorm:      0.071168  CPU:    8.340
  ** Hessian calculated **
  Cycle:    116 Energy:      -155.203069  Gnorm:      0.077183  CPU:    8.457
  Cycle:    117 Energy:      -155.204841  Gnorm:      0.088467  CPU:    8.546
  Cycle:    118 Energy:      -155.206408  Gnorm:      0.087618  CPU:    8.637
  Cycle:    119 Energy:      -155.207484  Gnorm:      0.069346  CPU:    8.710
  Cycle:    120 Energy:      -155.208245  Gnorm:      0.059715  CPU:    8.782
  Cycle:    121 Energy:      -155.208928  Gnorm:      0.044399  CPU:    8.872
  Cycle:    122 Energy:      -155.209595  Gnorm:      0.048044  CPU:    8.962
  Cycle:    123 Energy:      -155.210250  Gnorm:      0.066191  CPU:    9.052
  Cycle:    124 Energy:      -155.210802  Gnorm:      0.058048  CPU:    9.125
  Cycle:    125 Energy:      -155.211788  Gnorm:      0.082599  CPU:    9.215
  ** Hessian calculated **
  Cycle:    126 Energy:      -155.212557  Gnorm:      0.049267  CPU:    9.332
  Cycle:    127 Energy:      -155.213058  Gnorm:      0.061193  CPU:    9.422
  Cycle:    128 Energy:      -155.213686  Gnorm:      0.044506  CPU:    9.512
  Cycle:    129 Energy:      -155.214346  Gnorm:      0.051605  CPU:    9.602
  Cycle:    130 Energy:      -155.214954  Gnorm:      0.055838  CPU:    9.692
  Cycle:    131 Energy:      -155.215643  Gnorm:      0.062990  CPU:    9.782
  Cycle:    132 Energy:      -155.216460  Gnorm:      0.067959  CPU:    9.872
  Cycle:    133 Energy:      -155.217619  Gnorm:      0.078791  CPU:    9.961
  Cycle:    134 Energy:      -155.219167  Gnorm:      0.073932  CPU:   10.051
  Cycle:    135 Energy:      -155.220969  Gnorm:      0.065519  CPU:   10.140
  ** Hessian calculated **
  Cycle:    136 Energy:      -155.222524  Gnorm:      0.066127  CPU:   10.257
  Cycle:    137 Energy:      -155.223936  Gnorm:      0.079833  CPU:   10.346
  Cycle:    138 Energy:      -155.225004  Gnorm:      0.070304  CPU:   10.418
  Cycle:    139 Energy:      -155.225855  Gnorm:      0.066353  CPU:   10.508
  Cycle:    140 Energy:      -155.226601  Gnorm:      0.052992  CPU:   10.598
  Cycle:    141 Energy:      -155.227191  Gnorm:      0.051849  CPU:   10.671
  Cycle:    142 Energy:      -155.227662  Gnorm:      0.051354  CPU:   10.743
  Cycle:    143 Energy:      -155.228107  Gnorm:      0.049012  CPU:   10.833
  Cycle:    144 Energy:      -155.228670  Gnorm:      0.049947  CPU:   10.924
  Cycle:    145 Energy:      -155.229483  Gnorm:      0.076578  CPU:   11.014
  ** Hessian calculated **
  Cycle:    146 Energy:      -155.230214  Gnorm:      0.043387  CPU:   11.131
  Cycle:    147 Energy:      -155.230707  Gnorm:      0.050246  CPU:   11.222
  Cycle:    148 Energy:      -155.231149  Gnorm:      0.049719  CPU:   11.312
  Cycle:    149 Energy:      -155.231647  Gnorm:      0.048585  CPU:   11.402
  Cycle:    150 Energy:      -155.232205  Gnorm:      0.050519  CPU:   11.492
  Cycle:    151 Energy:      -155.232881  Gnorm:      0.061707  CPU:   11.582
  Cycle:    152 Energy:      -155.233564  Gnorm:      0.064483  CPU:   11.672
  Cycle:    153 Energy:      -155.234393  Gnorm:      0.072301  CPU:   11.761
  Cycle:    154 Energy:      -155.235670  Gnorm:      0.062360  CPU:   11.851
  Cycle:    155 Energy:      -155.237141  Gnorm:      0.060354  CPU:   11.941
  ** Hessian calculated **
  Cycle:    156 Energy:      -155.238523  Gnorm:      0.059323  CPU:   12.058
  Cycle:    157 Energy:      -155.239673  Gnorm:      0.069966  CPU:   12.148
  Cycle:    158 Energy:      -155.240418  Gnorm:      0.062663  CPU:   12.220
  Cycle:    159 Energy:      -155.241138  Gnorm:      0.062249  CPU:   12.310
  Cycle:    160 Energy:      -155.241828  Gnorm:      0.048899  CPU:   12.400
  Cycle:    161 Energy:      -155.242349  Gnorm:      0.048941  CPU:   12.473
  Cycle:    162 Energy:      -155.242758  Gnorm:      0.051630  CPU:   12.545
  Cycle:    163 Energy:      -155.243128  Gnorm:      0.040138  CPU:   12.635
  Cycle:    164 Energy:      -155.243600  Gnorm:      0.045672  CPU:   12.726
  Cycle:    165 Energy:      -155.244396  Gnorm:      0.080294  CPU:   12.816
  ** Hessian calculated **
  Cycle:    166 Energy:      -155.245166  Gnorm:      0.040671  CPU:   12.935
  Cycle:    167 Energy:      -155.245593  Gnorm:      0.041439  CPU:   13.025
  Cycle:    168 Energy:      -155.245969  Gnorm:      0.049164  CPU:   13.115
  Cycle:    169 Energy:      -155.246372  Gnorm:      0.051457  CPU:   13.206
  Cycle:    170 Energy:      -155.246846  Gnorm:      0.045522  CPU:   13.296
  Cycle:    171 Energy:      -155.247490  Gnorm:      0.060130  CPU:   13.386
  Cycle:    172 Energy:      -155.248116  Gnorm:      0.059499  CPU:   13.477
  Cycle:    173 Energy:      -155.248743  Gnorm:      0.068744  CPU:   13.550
  Cycle:    174 Energy:      -155.249822  Gnorm:      0.057820  CPU:   13.640
  Cycle:    175 Energy:      -155.251094  Gnorm:      0.056761  CPU:   13.730
  ** Hessian calculated **
  Cycle:    176 Energy:      -155.252305  Gnorm:      0.054611  CPU:   13.847
  Cycle:    177 Energy:      -155.253317  Gnorm:      0.063223  CPU:   13.936
  Cycle:    178 Energy:      -155.253904  Gnorm:      0.059314  CPU:   14.012
  Cycle:    179 Energy:      -155.254530  Gnorm:      0.055102  CPU:   14.101
  Cycle:    180 Energy:      -155.255143  Gnorm:      0.046288  CPU:   14.194
  Cycle:    181 Energy:      -155.255606  Gnorm:      0.048541  CPU:   14.266
  Cycle:    182 Energy:      -155.255963  Gnorm:      0.050635  CPU:   14.338
  Cycle:    183 Energy:      -155.256311  Gnorm:      0.037233  CPU:   14.431
  Cycle:    184 Energy:      -155.256716  Gnorm:      0.040640  CPU:   14.524
  Cycle:    185 Energy:      -155.257563  Gnorm:      0.083363  CPU:   14.613
  ** Hessian calculated **
  Cycle:    186 Energy:      -155.258356  Gnorm:      0.038793  CPU:   14.733
  Cycle:    187 Energy:      -155.258728  Gnorm:      0.038522  CPU:   14.822
  Cycle:    188 Energy:      -155.259076  Gnorm:      0.046337  CPU:   14.915
  Cycle:    189 Energy:      -155.259431  Gnorm:      0.044813  CPU:   15.004
  Cycle:    190 Energy:      -155.259859  Gnorm:      0.040511  CPU:   15.097
  Cycle:    191 Energy:      -155.260430  Gnorm:      0.054192  CPU:   15.187
  Cycle:    192 Energy:      -155.260972  Gnorm:      0.056013  CPU:   15.262
  Cycle:    193 Energy:      -155.261494  Gnorm:      0.060305  CPU:   15.334
  Cycle:    194 Energy:      -155.262428  Gnorm:      0.050331  CPU:   15.426
  Cycle:    195 Energy:      -155.263539  Gnorm:      0.053030  CPU:   15.515
  ** Hessian calculated **
  Cycle:    196 Energy:      -155.264616  Gnorm:      0.051857  CPU:   15.635
  Cycle:    197 Energy:      -155.265526  Gnorm:      0.056290  CPU:   15.724
  Cycle:    198 Energy:      -155.265980  Gnorm:      0.053015  CPU:   15.798
  Cycle:    199 Energy:      -155.266501  Gnorm:      0.052406  CPU:   15.888
  Cycle:    200 Energy:      -155.267051  Gnorm:      0.041495  CPU:   15.980
  Cycle:    201 Energy:      -155.267434  Gnorm:      0.043780  CPU:   16.052
  Cycle:    202 Energy:      -155.267774  Gnorm:      0.047921  CPU:   16.145
  Cycle:    203 Energy:      -155.268100  Gnorm:      0.038375  CPU:   16.234
  Cycle:    204 Energy:      -155.268448  Gnorm:      0.038411  CPU:   16.309
  Cycle:    205 Energy:      -155.269351  Gnorm:      0.086375  CPU:   16.398
  ** Hessian calculated **
  Cycle:    206 Energy:      -155.270122  Gnorm:      0.035754  CPU:   16.518
  Cycle:    207 Energy:      -155.270430  Gnorm:      0.032942  CPU:   16.608
  Cycle:    208 Energy:      -155.270771  Gnorm:      0.048965  CPU:   16.700
  Cycle:    209 Energy:      -155.271124  Gnorm:      0.035726  CPU:   16.790
  Cycle:    210 Energy:      -155.271456  Gnorm:      0.041291  CPU:   16.882
  Cycle:    211 Energy:      -155.272003  Gnorm:      0.053702  CPU:   16.972
  Cycle:    212 Energy:      -155.272561  Gnorm:      0.053929  CPU:   17.064
  Cycle:    213 Energy:      -155.272991  Gnorm:      0.057126  CPU:   17.136
  Cycle:    214 Energy:      -155.273826  Gnorm:      0.052858  CPU:   17.229
  Cycle:    215 Energy:      -155.274973  Gnorm:      0.050320  CPU:   17.318
  ** Hessian calculated **
  Cycle:    216 Energy:      -155.276076  Gnorm:      0.053725  CPU:   17.437
  Cycle:    217 Energy:      -155.276902  Gnorm:      0.062036  CPU:   17.526
  Cycle:    218 Energy:      -155.277338  Gnorm:      0.043928  CPU:   17.601
  Cycle:    219 Energy:      -155.277949  Gnorm:      0.052245  CPU:   17.691
  Cycle:    220 Energy:      -155.278450  Gnorm:      0.039283  CPU:   17.766
  Cycle:    221 Energy:      -155.278803  Gnorm:      0.037097  CPU:   17.838
  Cycle:    222 Energy:      -155.279192  Gnorm:      0.031532  CPU:   17.930
  Cycle:    223 Energy:      -155.279465  Gnorm:      0.040379  CPU:   18.002
  Cycle:    224 Energy:      -155.279687  Gnorm:      0.045355  CPU:   18.075
  Cycle:    225 Energy:      -155.280633  Gnorm:      0.105096  CPU:   18.185
  ** Hessian calculated **
  Cycle:    226 Energy:      -155.281504  Gnorm:      0.041607  CPU:   18.304
  Cycle:    227 Energy:      -155.281719  Gnorm:      0.035258  CPU:   18.379
  Cycle:    228 Energy:      -155.282013  Gnorm:      0.037097  CPU:   18.472
  Cycle:    229 Energy:      -155.282413  Gnorm:      0.038512  CPU:   18.561
  Cycle:    230 Energy:      -155.282690  Gnorm:      0.035958  CPU:   18.636
  Cycle:    231 Energy:      -155.283071  Gnorm:      0.060576  CPU:   18.725
  Cycle:    232 Energy:      -155.283661  Gnorm:      0.057332  CPU:   18.818
  Cycle:    233 Energy:      -155.284058  Gnorm:      0.045802  CPU:   18.889
  Cycle:    234 Energy:      -155.284843  Gnorm:      0.047883  CPU:   18.981
  Cycle:    235 Energy:      -155.286225  Gnorm:      0.044315  CPU:   19.070
  ** Hessian calculated **
  Cycle:    236 Energy:      -155.287269  Gnorm:      0.072866  CPU:   19.190
  Cycle:    237 Energy:      -155.287969  Gnorm:      0.058746  CPU:   19.279
  Cycle:    238 Energy:      -155.288504  Gnorm:      0.031104  CPU:   19.354
  Cycle:    239 Energy:      -155.289210  Gnorm:      0.058990  CPU:   19.442
  Cycle:    240 Energy:      -155.289677  Gnorm:      0.032198  CPU:   19.517
  Cycle:    241 Energy:      -155.289881  Gnorm:      0.035208  CPU:   19.589
  Cycle:    242 Energy:      -155.290291  Gnorm:      0.049927  CPU:   19.681
  Cycle:    243 Energy:      -155.290522  Gnorm:      0.024079  CPU:   19.753
  Cycle:    244 Energy:      -155.290913  Gnorm:      0.036644  CPU:   19.845
  Cycle:    245 Energy:      -155.292280  Gnorm:      0.056909  CPU:   19.952
  ** Hessian calculated **
  Cycle:    246 Energy:      -155.292787  Gnorm:      0.046798  CPU:   20.072
  Cycle:    247 Energy:      -155.293189  Gnorm:      0.042315  CPU:   20.164
  Cycle:    248 Energy:      -155.293426  Gnorm:      0.039010  CPU:   20.239
  Cycle:    249 Energy:      -155.293749  Gnorm:      0.022821  CPU:   20.328
  Cycle:    250 Energy:      -155.294039  Gnorm:      0.052098  CPU:   20.420
  Cycle:    251 Energy:      -155.294368  Gnorm:      0.032471  CPU:   20.509
  Cycle:    252 Energy:      -155.294697  Gnorm:      0.054984  CPU:   20.601
  Cycle:    253 Energy:      -155.295607  Gnorm:      0.056965  CPU:   20.690
  Cycle:    254 Energy:      -155.296221  Gnorm:      0.046912  CPU:   20.764
  Cycle:    255 Energy:      -155.297020  Gnorm:      0.053522  CPU:   20.853
  ** Hessian calculated **
  Cycle:    256 Energy:      -155.297717  Gnorm:      0.042641  CPU:   20.972
  Cycle:    257 Energy:      -155.298293  Gnorm:      0.055667  CPU:   21.060
  Cycle:    258 Energy:      -155.299035  Gnorm:      0.062306  CPU:   21.152
  Cycle:    259 Energy:      -155.299451  Gnorm:      0.038433  CPU:   21.224
  Cycle:    260 Energy:      -155.299674  Gnorm:      0.025173  CPU:   21.295
  Cycle:    261 Energy:      -155.300013  Gnorm:      0.036716  CPU:   21.387
  Cycle:    262 Energy:      -155.300242  Gnorm:      0.044249  CPU:   21.462
  Cycle:    263 Energy:      -155.300484  Gnorm:      0.034232  CPU:   21.551
  Cycle:    264 Energy:      -155.300856  Gnorm:      0.044798  CPU:   21.643
  Cycle:    265 Energy:      -155.301378  Gnorm:      0.061908  CPU:   21.732
  ** Hessian calculated **
  Cycle:    266 Energy:      -155.301768  Gnorm:      0.040555  CPU:   21.854
  Cycle:    267 Energy:      -155.302111  Gnorm:      0.047245  CPU:   21.943
  Cycle:    268 Energy:      -155.302377  Gnorm:      0.027773  CPU:   22.035
  Cycle:    269 Energy:      -155.302622  Gnorm:      0.035420  CPU:   22.125
  Cycle:    270 Energy:      -155.302812  Gnorm:      0.019741  CPU:   22.199
  Cycle:    271 Energy:      -155.303166  Gnorm:      0.037022  CPU:   22.288
  Cycle:    272 Energy:      -155.303487  Gnorm:      0.056360  CPU:   22.363
  Cycle:    273 Energy:      -155.304598  Gnorm:      0.071201  CPU:   22.469
  Cycle:    274 Energy:      -155.305230  Gnorm:      0.039996  CPU:   22.543
  Cycle:    275 Energy:      -155.306410  Gnorm:      0.055304  CPU:   22.632
  ** Hessian calculated **
  Cycle:    276 Energy:      -155.307203  Gnorm:      0.058478  CPU:   22.748
  Cycle:    277 Energy:      -155.307819  Gnorm:      0.054074  CPU:   22.837
  Cycle:    278 Energy:      -155.308756  Gnorm:      0.051706  CPU:   22.926
  Cycle:    279 Energy:      -155.309327  Gnorm:      0.053357  CPU:   22.997
  Cycle:    280 Energy:      -155.309614  Gnorm:      0.039936  CPU:   23.069
  Cycle:    281 Energy:      -155.309950  Gnorm:      0.029013  CPU:   23.158
  Cycle:    282 Energy:      -155.310236  Gnorm:      0.034723  CPU:   23.247
  Cycle:    283 Energy:      -155.310446  Gnorm:      0.026150  CPU:   23.318
  Cycle:    284 Energy:      -155.310867  Gnorm:      0.034583  CPU:   23.407
  Cycle:    285 Energy:      -155.311916  Gnorm:      0.072157  CPU:   23.513
  ** Hessian calculated **
  Cycle:    286 Energy:      -155.312658  Gnorm:      0.032442  CPU:   23.628
  Cycle:    287 Energy:      -155.313083  Gnorm:      0.020345  CPU:   23.717
  Cycle:    288 Energy:      -155.313223  Gnorm:      0.036211  CPU:   23.789
  Cycle:    289 Energy:      -155.313433  Gnorm:      0.033018  CPU:   23.877
  Cycle:    290 Energy:      -155.313712  Gnorm:      0.039944  CPU:   23.966
  Cycle:    291 Energy:      -155.314032  Gnorm:      0.027446  CPU:   24.054
  Cycle:    292 Energy:      -155.314459  Gnorm:      0.044992  CPU:   24.143
  Cycle:    293 Energy:      -155.315088  Gnorm:      0.055759  CPU:   24.231
  Cycle:    294 Energy:      -155.315969  Gnorm:      0.075697  CPU:   24.320
  Cycle:    295 Energy:      -155.316819  Gnorm:      0.036907  CPU:   24.408
  ** Hessian calculated **
  Cycle:    296 Energy:      -155.317398  Gnorm:      0.060961  CPU:   24.524
  Cycle:    297 Energy:      -155.318290  Gnorm:      0.070242  CPU:   24.612
  Cycle:    298 Energy:      -155.319031  Gnorm:      0.049191  CPU:   24.684
  Cycle:    299 Energy:      -155.319471  Gnorm:      0.028712  CPU:   24.755
  Cycle:    300 Energy:      -155.319816  Gnorm:      0.041474  CPU:   24.844
  Cycle:    301 Energy:      -155.320075  Gnorm:      0.029078  CPU:   24.915
  Cycle:    302 Energy:      -155.320289  Gnorm:      0.031601  CPU:   25.004
  Cycle:    303 Energy:      -155.320463  Gnorm:      0.023220  CPU:   25.075
  Cycle:    304 Energy:      -155.320769  Gnorm:      0.037212  CPU:   25.164
  Cycle:    305 Energy:      -155.321583  Gnorm:      0.062176  CPU:   25.253
  ** Hessian calculated **
  Cycle:    306 Energy:      -155.322188  Gnorm:      0.042766  CPU:   25.371
  Cycle:    307 Energy:      -155.322542  Gnorm:      0.022446  CPU:   25.460
  Cycle:    308 Energy:      -155.322739  Gnorm:      0.029782  CPU:   25.532
  Cycle:    309 Energy:      -155.322927  Gnorm:      0.037127  CPU:   25.620
  Cycle:    310 Energy:      -155.323262  Gnorm:      0.036936  CPU:   25.709
  Cycle:    311 Energy:      -155.323520  Gnorm:      0.036565  CPU:   25.780
  Cycle:    312 Energy:      -155.323947  Gnorm:      0.040185  CPU:   25.869
  Cycle:    313 Energy:      -155.324560  Gnorm:      0.070479  CPU:   25.957
  Cycle:    314 Energy:      -155.325351  Gnorm:      0.051937  CPU:   26.045
  Cycle:    315 Energy:      -155.326038  Gnorm:      0.039273  CPU:   26.116
  ** Hessian calculated **
  Cycle:    316 Energy:      -155.326511  Gnorm:      0.048688  CPU:   26.232
  Cycle:    317 Energy:      -155.327260  Gnorm:      0.061629  CPU:   26.320
  Cycle:    318 Energy:      -155.327865  Gnorm:      0.054128  CPU:   26.409
  Cycle:    319 Energy:      -155.328245  Gnorm:      0.031342  CPU:   26.480
  Cycle:    320 Energy:      -155.328572  Gnorm:      0.040833  CPU:   26.568
  Cycle:    321 Energy:      -155.328873  Gnorm:      0.038791  CPU:   26.657
  Cycle:    322 Energy:      -155.329129  Gnorm:      0.027530  CPU:   26.728
  Cycle:    323 Energy:      -155.329324  Gnorm:      0.026850  CPU:   26.800
  Cycle:    324 Energy:      -155.329634  Gnorm:      0.036338  CPU:   26.889
  Cycle:    325 Energy:      -155.330177  Gnorm:      0.051005  CPU:   26.977
  ** Hessian calculated **
  Cycle:    326 Energy:      -155.330628  Gnorm:      0.036509  CPU:   27.093
  Cycle:    327 Energy:      -155.330949  Gnorm:      0.024918  CPU:   27.181
  Cycle:    328 Energy:      -155.331132  Gnorm:      0.022042  CPU:   27.253
  Cycle:    329 Energy:      -155.331380  Gnorm:      0.031998  CPU:   27.341
  Cycle:    330 Energy:      -155.331728  Gnorm:      0.051349  CPU:   27.430
  Cycle:    331 Energy:      -155.332002  Gnorm:      0.035507  CPU:   27.501
  Cycle:    332 Energy:      -155.332451  Gnorm:      0.058464  CPU:   27.589
  Cycle:    333 Energy:      -155.333063  Gnorm:      0.063341  CPU:   27.678
  Cycle:    334 Energy:      -155.333718  Gnorm:      0.052224  CPU:   27.766
  Cycle:    335 Energy:      -155.334192  Gnorm:      0.043740  CPU:   27.837
  ** Hessian calculated **
  Cycle:    336 Energy:      -155.334604  Gnorm:      0.046548  CPU:   27.957
  Cycle:    337 Energy:      -155.335190  Gnorm:      0.055945  CPU:   28.044
  Cycle:    338 Energy:      -155.335776  Gnorm:      0.061348  CPU:   28.133
  Cycle:    339 Energy:      -155.336217  Gnorm:      0.031693  CPU:   28.204
  Cycle:    340 Energy:      -155.336498  Gnorm:      0.051080  CPU:   28.276
  Cycle:    341 Energy:      -155.336830  Gnorm:      0.030732  CPU:   28.364
  Cycle:    342 Energy:      -155.337108  Gnorm:      0.027774  CPU:   28.436
  Cycle:    343 Energy:      -155.337328  Gnorm:      0.025241  CPU:   28.507
  Cycle:    344 Energy:      -155.337692  Gnorm:      0.036137  CPU:   28.596
  Cycle:    345 Energy:      -155.338129  Gnorm:      0.055096  CPU:   28.684
  ** Hessian calculated **
  Cycle:    346 Energy:      -155.338534  Gnorm:      0.033903  CPU:   28.799
  Cycle:    347 Energy:      -155.338864  Gnorm:      0.023727  CPU:   28.887
  Cycle:    348 Energy:      -155.339067  Gnorm:      0.025396  CPU:   28.976
  Cycle:    349 Energy:      -155.339331  Gnorm:      0.029927  CPU:   29.064
  Cycle:    350 Energy:      -155.339616  Gnorm:      0.042802  CPU:   29.155
  Cycle:    351 Energy:      -155.339922  Gnorm:      0.030536  CPU:   29.243
  Cycle:    352 Energy:      -155.340425  Gnorm:      0.054852  CPU:   29.333
  Cycle:    353 Energy:      -155.341083  Gnorm:      0.057719  CPU:   29.421
  Cycle:    354 Energy:      -155.341645  Gnorm:      0.041031  CPU:   29.494
  Cycle:    355 Energy:      -155.342079  Gnorm:      0.062601  CPU:   29.565
  ** Hessian calculated **
  Cycle:    356 Energy:      -155.342478  Gnorm:      0.041495  CPU:   29.682
  Cycle:    357 Energy:      -155.343009  Gnorm:      0.058420  CPU:   29.770
  Cycle:    358 Energy:      -155.343629  Gnorm:      0.056608  CPU:   29.844
  Cycle:    359 Energy:      -155.344112  Gnorm:      0.031139  CPU:   29.931
  Cycle:    360 Energy:      -155.344471  Gnorm:      0.036237  CPU:   30.004
  Cycle:    361 Energy:      -155.344726  Gnorm:      0.035476  CPU:   30.075
  Cycle:    362 Energy:      -155.344963  Gnorm:      0.031412  CPU:   30.165
  Cycle:    363 Energy:      -155.345191  Gnorm:      0.023982  CPU:   30.253
  Cycle:    364 Energy:      -155.345596  Gnorm:      0.031774  CPU:   30.344
  Cycle:    365 Energy:      -155.346154  Gnorm:      0.059061  CPU:   30.432
  ** Hessian calculated **
  Cycle:    366 Energy:      -155.346663  Gnorm:      0.028151  CPU:   30.549
  Cycle:    367 Energy:      -155.346992  Gnorm:      0.028709  CPU:   30.637
  Cycle:    368 Energy:      -155.347185  Gnorm:      0.027407  CPU:   30.710
  Cycle:    369 Energy:      -155.347409  Gnorm:      0.032042  CPU:   30.798
  Cycle:    370 Energy:      -155.347661  Gnorm:      0.037380  CPU:   30.888
  Cycle:    371 Energy:      -155.348038  Gnorm:      0.030678  CPU:   30.976
  Cycle:    372 Energy:      -155.348418  Gnorm:      0.058620  CPU:   31.049
  Cycle:    373 Energy:      -155.349017  Gnorm:      0.064584  CPU:   31.136
  Cycle:    374 Energy:      -155.349581  Gnorm:      0.046807  CPU:   31.227
  Cycle:    375 Energy:      -155.350051  Gnorm:      0.029014  CPU:   31.297
  ** Hessian calculated **
  Cycle:    376 Energy:      -155.350504  Gnorm:      0.044934  CPU:   31.429
  Cycle:    377 Energy:      -155.351006  Gnorm:      0.062394  CPU:   31.516
  Cycle:    378 Energy:      -155.351606  Gnorm:      0.056049  CPU:   31.604
  Cycle:    379 Energy:      -155.351964  Gnorm:      0.028916  CPU:   31.674
  Cycle:    380 Energy:      -155.352350  Gnorm:      0.035450  CPU:   31.762
  Cycle:    381 Energy:      -155.352651  Gnorm:      0.035641  CPU:   31.833
  Cycle:    382 Energy:      -155.352896  Gnorm:      0.025212  CPU:   31.903
  Cycle:    383 Energy:      -155.353195  Gnorm:      0.042798  CPU:   31.991
  Cycle:    384 Energy:      -155.353470  Gnorm:      0.034222  CPU:   32.062
  Cycle:    385 Energy:      -155.354015  Gnorm:      0.075195  CPU:   32.149
  ** Hessian calculated **
  Cycle:    386 Energy:      -155.354510  Gnorm:      0.029401  CPU:   32.264
  Cycle:    387 Energy:      -155.354750  Gnorm:      0.037586  CPU:   32.351
  Cycle:    388 Energy:      -155.355014  Gnorm:      0.027291  CPU:   32.439
  Cycle:    389 Energy:      -155.355229  Gnorm:      0.031819  CPU:   32.527
  Cycle:    390 Energy:      -155.355558  Gnorm:      0.029879  CPU:   32.615
  Cycle:    391 Energy:      -155.355970  Gnorm:      0.028304  CPU:   32.703
  Cycle:    392 Energy:      -155.356406  Gnorm:      0.055306  CPU:   32.790
  Cycle:    393 Energy:      -155.357065  Gnorm:      0.064552  CPU:   32.877
  Cycle:    394 Energy:      -155.357517  Gnorm:      0.043542  CPU:   32.948
  Cycle:    395 Energy:      -155.357916  Gnorm:      0.034905  CPU:   33.018
  ** Hessian calculated **
  Cycle:    396 Energy:      -155.358294  Gnorm:      0.040159  CPU:   33.133
  Cycle:    397 Energy:      -155.358740  Gnorm:      0.060298  CPU:   33.220
  Cycle:    398 Energy:      -155.359318  Gnorm:      0.060499  CPU:   33.308
  Cycle:    399 Energy:      -155.359765  Gnorm:      0.034447  CPU:   33.395
  Cycle:    400 Energy:      -155.360141  Gnorm:      0.034892  CPU:   33.483
  Cycle:    401 Energy:      -155.360505  Gnorm:      0.036189  CPU:   33.570
  Cycle:    402 Energy:      -155.360711  Gnorm:      0.036033  CPU:   33.641
  Cycle:    403 Energy:      -155.360951  Gnorm:      0.028274  CPU:   33.728
  Cycle:    404 Energy:      -155.361326  Gnorm:      0.029478  CPU:   33.816
  Cycle:    405 Energy:      -155.361719  Gnorm:      0.046845  CPU:   33.903
  ** Hessian calculated **
  Cycle:    406 Energy:      -155.362084  Gnorm:      0.031195  CPU:   34.018
  Cycle:    407 Energy:      -155.362426  Gnorm:      0.023549  CPU:   34.105
  Cycle:    408 Energy:      -155.362675  Gnorm:      0.036706  CPU:   34.193
  Cycle:    409 Energy:      -155.362903  Gnorm:      0.045211  CPU:   34.264
  Cycle:    410 Energy:      -155.363246  Gnorm:      0.038239  CPU:   34.352
  Cycle:    411 Energy:      -155.363593  Gnorm:      0.036206  CPU:   34.440
  Cycle:    412 Energy:      -155.364154  Gnorm:      0.058104  CPU:   34.527
  Cycle:    413 Energy:      -155.364682  Gnorm:      0.060767  CPU:   34.598
  Cycle:    414 Energy:      -155.365108  Gnorm:      0.043823  CPU:   34.668
  Cycle:    415 Energy:      -155.365505  Gnorm:      0.040582  CPU:   34.739
  ** Hessian calculated **
  Cycle:    416 Energy:      -155.365886  Gnorm:      0.042991  CPU:   34.854
  Cycle:    417 Energy:      -155.366284  Gnorm:      0.056087  CPU:   34.941
  Cycle:    418 Energy:      -155.366789  Gnorm:      0.057191  CPU:   35.028
  Cycle:    419 Energy:      -155.367364  Gnorm:      0.037505  CPU:   35.115
  Cycle:    420 Energy:      -155.367698  Gnorm:      0.031500  CPU:   35.185
  Cycle:    421 Energy:      -155.368082  Gnorm:      0.039947  CPU:   35.272
  Cycle:    422 Energy:      -155.368313  Gnorm:      0.038164  CPU:   35.342
  Cycle:    423 Energy:      -155.368573  Gnorm:      0.026532  CPU:   35.429
  Cycle:    424 Energy:      -155.368979  Gnorm:      0.033264  CPU:   35.517
  Cycle:    425 Energy:      -155.369340  Gnorm:      0.044454  CPU:   35.587
  ** Hessian calculated **
  Cycle:    426 Energy:      -155.369687  Gnorm:      0.032320  CPU:   35.701
  Cycle:    427 Energy:      -155.370074  Gnorm:      0.024058  CPU:   35.788
  Cycle:    428 Energy:      -155.370289  Gnorm:      0.036173  CPU:   35.858
  Cycle:    429 Energy:      -155.370526  Gnorm:      0.039389  CPU:   35.945
  Cycle:    430 Energy:      -155.370900  Gnorm:      0.035366  CPU:   36.032
  Cycle:    431 Energy:      -155.371229  Gnorm:      0.035762  CPU:   36.119
  Cycle:    432 Energy:      -155.371754  Gnorm:      0.064907  CPU:   36.206
  Cycle:    433 Energy:      -155.372341  Gnorm:      0.055442  CPU:   36.292
  Cycle:    434 Energy:      -155.372801  Gnorm:      0.044957  CPU:   36.362
  Cycle:    435 Energy:      -155.373265  Gnorm:      0.032964  CPU:   36.432
  ** Hessian calculated **
  Cycle:    436 Energy:      -155.373714  Gnorm:      0.043460  CPU:   36.546
  Cycle:    437 Energy:      -155.374214  Gnorm:      0.053984  CPU:   36.633
  Cycle:    438 Energy:      -155.374850  Gnorm:      0.061821  CPU:   36.720
  Cycle:    439 Energy:      -155.375257  Gnorm:      0.035305  CPU:   36.790
  Cycle:    440 Energy:      -155.375553  Gnorm:      0.042140  CPU:   36.860
  Cycle:    441 Energy:      -155.375917  Gnorm:      0.041226  CPU:   36.947
  Cycle:    442 Energy:      -155.376146  Gnorm:      0.037799  CPU:   37.017
  Cycle:    443 Energy:      -155.376406  Gnorm:      0.025135  CPU:   37.104
  Cycle:    444 Energy:      -155.376865  Gnorm:      0.035705  CPU:   37.191
  Cycle:    445 Energy:      -155.377298  Gnorm:      0.053411  CPU:   37.261
  ** Hessian calculated **
  Cycle:    446 Energy:      -155.377698  Gnorm:      0.032132  CPU:   37.375
  Cycle:    447 Energy:      -155.378122  Gnorm:      0.022404  CPU:   37.462
  Cycle:    448 Energy:      -155.378388  Gnorm:      0.040293  CPU:   37.532
  Cycle:    449 Energy:      -155.378618  Gnorm:      0.042148  CPU:   37.602
  Cycle:    450 Energy:      -155.378987  Gnorm:      0.043325  CPU:   37.689
  Cycle:    451 Energy:      -155.379302  Gnorm:      0.029984  CPU:   37.759
  Cycle:    452 Energy:      -155.379806  Gnorm:      0.064095  CPU:   37.846
  Cycle:    453 Energy:      -155.380362  Gnorm:      0.054340  CPU:   37.933
  Cycle:    454 Energy:      -155.380882  Gnorm:      0.046516  CPU:   38.002
  Cycle:    455 Energy:      -155.381334  Gnorm:      0.036683  CPU:   38.072
  ** Hessian calculated **
  Cycle:    456 Energy:      -155.381764  Gnorm:      0.041643  CPU:   38.188
  Cycle:    457 Energy:      -155.382261  Gnorm:      0.052576  CPU:   38.274
  Cycle:    458 Energy:      -155.382834  Gnorm:      0.059032  CPU:   38.361
  Cycle:    459 Energy:      -155.383263  Gnorm:      0.036952  CPU:   38.447
  Cycle:    460 Energy:      -155.383576  Gnorm:      0.039346  CPU:   38.518
  Cycle:    461 Energy:      -155.383979  Gnorm:      0.040054  CPU:   38.605
  Cycle:    462 Energy:      -155.384217  Gnorm:      0.038946  CPU:   38.676
  Cycle:    463 Energy:      -155.384499  Gnorm:      0.026988  CPU:   38.762
  Cycle:    464 Energy:      -155.384955  Gnorm:      0.038190  CPU:   38.850
  Cycle:    465 Energy:      -155.385356  Gnorm:      0.049271  CPU:   38.919
  ** Hessian calculated **
  Cycle:    466 Energy:      -155.385754  Gnorm:      0.033425  CPU:   39.034
  Cycle:    467 Energy:      -155.386176  Gnorm:      0.025028  CPU:   39.120
  Cycle:    468 Energy:      -155.386409  Gnorm:      0.034816  CPU:   39.191
  Cycle:    469 Energy:      -155.386634  Gnorm:      0.037825  CPU:   39.277
  Cycle:    470 Energy:      -155.387034  Gnorm:      0.039742  CPU:   39.364
  Cycle:    471 Energy:      -155.387395  Gnorm:      0.039923  CPU:   39.451
  Cycle:    472 Energy:      -155.387992  Gnorm:      0.059768  CPU:   39.537
  Cycle:    473 Energy:      -155.388576  Gnorm:      0.057154  CPU:   39.624
  Cycle:    474 Energy:      -155.389045  Gnorm:      0.043981  CPU:   39.693
  Cycle:    475 Energy:      -155.389480  Gnorm:      0.036386  CPU:   39.763
  ** Hessian calculated **
  Cycle:    476 Energy:      -155.389898  Gnorm:      0.043687  CPU:   39.879
  Cycle:    477 Energy:      -155.390388  Gnorm:      0.058168  CPU:   39.966
  Cycle:    478 Energy:      -155.390942  Gnorm:      0.061867  CPU:   40.053
  Cycle:    479 Energy:      -155.391500  Gnorm:      0.038433  CPU:   40.139
  Cycle:    480 Energy:      -155.391849  Gnorm:      0.042097  CPU:   40.210
  Cycle:    481 Energy:      -155.392312  Gnorm:      0.027681  CPU:   40.296
  Cycle:    482 Energy:      -155.392619  Gnorm:      0.028703  CPU:   40.366
  Cycle:    483 Energy:      -155.392964  Gnorm:      0.031821  CPU:   40.453
  Cycle:    484 Energy:      -155.393424  Gnorm:      0.033473  CPU:   40.540
  Cycle:    485 Energy:      -155.396524  Gnorm:      0.033938  CPU:   40.661
  ** Hessian calculated **
  Cycle:    486 Energy:      -155.396863  Gnorm:      0.042487  CPU:   40.775
  Cycle:    487 Energy:      -155.397229  Gnorm:      0.044604  CPU:   40.861
  Cycle:    488 Energy:      -155.397559  Gnorm:      0.028406  CPU:   40.948
  Cycle:    489 Energy:      -155.398073  Gnorm:      0.031103  CPU:   41.034
  Cycle:    490 Energy:      -155.398656  Gnorm:      0.042747  CPU:   41.121
  Cycle:    491 Energy:      -155.399135  Gnorm:      0.037250  CPU:   41.191
  Cycle:    492 Energy:      -155.399630  Gnorm:      0.044631  CPU:   41.277
  Cycle:    493 Energy:      -155.400118  Gnorm:      0.059131  CPU:   41.363
  Cycle:    494 Energy:      -155.400417  Gnorm:      0.032384  CPU:   41.433
  Cycle:    495 Energy:      -155.401135  Gnorm:      0.068515  CPU:   41.519
  ** Hessian calculated **
  Cycle:    496 Energy:      -155.401774  Gnorm:      0.035095  CPU:   41.632
  Cycle:    497 Energy:      -155.402053  Gnorm:      0.048923  CPU:   41.718
  Cycle:    498 Energy:      -155.402497  Gnorm:      0.044198  CPU:   41.804
  Cycle:    499 Energy:      -155.402911  Gnorm:      0.051910  CPU:   41.890
  Cycle:    500 Energy:      -155.403440  Gnorm:      0.052468  CPU:   41.977
  Cycle:    501 Energy:      -155.403978  Gnorm:      0.043059  CPU:   42.065
  Cycle:    502 Energy:      -155.404368  Gnorm:      0.048027  CPU:   42.135
  Cycle:    503 Energy:      -155.404823  Gnorm:      0.038222  CPU:   42.223
  Cycle:    504 Energy:      -155.405294  Gnorm:      0.031427  CPU:   42.310
  Cycle:    505 Energy:      -155.405763  Gnorm:      0.037206  CPU:   42.397
  ** Hessian calculated **
  Cycle:    506 Energy:      -155.406090  Gnorm:      0.031575  CPU:   42.512
  Cycle:    507 Energy:      -155.406609  Gnorm:      0.034698  CPU:   42.598
  Cycle:    508 Energy:      -155.407060  Gnorm:      0.048600  CPU:   42.686
  Cycle:    509 Energy:      -155.407441  Gnorm:      0.043033  CPU:   42.756
  Cycle:    510 Energy:      -155.407897  Gnorm:      0.050487  CPU:   42.843
  Cycle:    511 Energy:      -155.408518  Gnorm:      0.043311  CPU:   42.929
  Cycle:    512 Energy:      -155.408926  Gnorm:      0.049495  CPU:   42.999
  Cycle:    513 Energy:      -155.409419  Gnorm:      0.051562  CPU:   43.086
  Cycle:    514 Energy:      -155.409791  Gnorm:      0.035473  CPU:   43.156
  Cycle:    515 Energy:      -155.410327  Gnorm:      0.058296  CPU:   43.242
  ** Hessian calculated **
  Cycle:    516 Energy:      -155.410813  Gnorm:      0.038668  CPU:   43.355
  Cycle:    517 Energy:      -155.411186  Gnorm:      0.051144  CPU:   43.441
  Cycle:    518 Energy:      -155.411674  Gnorm:      0.050073  CPU:   43.527
  Cycle:    519 Energy:      -155.412065  Gnorm:      0.039604  CPU:   43.596
  Cycle:    520 Energy:      -155.412667  Gnorm:      0.049748  CPU:   43.682
  Cycle:    521 Energy:      -155.413185  Gnorm:      0.050729  CPU:   43.751
  Cycle:    522 Energy:      -155.413578  Gnorm:      0.042390  CPU:   43.821
  Cycle:    523 Energy:      -155.414061  Gnorm:      0.034345  CPU:   43.907
  Cycle:    524 Energy:      -155.414610  Gnorm:      0.035389  CPU:   43.993
  Cycle:    525 Energy:      -155.414982  Gnorm:      0.036147  CPU:   44.062
  ** Hessian calculated **
  Cycle:    526 Energy:      -155.415315  Gnorm:      0.038331  CPU:   44.176
  Cycle:    527 Energy:      -155.415879  Gnorm:      0.037652  CPU:   44.262
  Cycle:    528 Energy:      -155.416276  Gnorm:      0.043060  CPU:   44.348
  Cycle:    529 Energy:      -155.416644  Gnorm:      0.042163  CPU:   44.434
  Cycle:    530 Energy:      -155.417206  Gnorm:      0.042195  CPU:   44.520
  Cycle:    531 Energy:      -155.417860  Gnorm:      0.029422  CPU:   44.605
  Cycle:    532 Energy:      -155.418437  Gnorm:      0.052922  CPU:   44.674
  Cycle:    533 Energy:      -155.418900  Gnorm:      0.045583  CPU:   44.743
  Cycle:    534 Energy:      -155.419385  Gnorm:      0.031423  CPU:   44.828
  Cycle:    535 Energy:      -155.422090  Gnorm:      0.122474  CPU:   44.947
  ** Hessian calculated **
  Cycle:    536 Energy:      -155.422995  Gnorm:      0.052256  CPU:   45.060
  Cycle:    537 Energy:      -155.423514  Gnorm:      0.039708  CPU:   45.145
  Cycle:    538 Energy:      -155.424018  Gnorm:      0.048947  CPU:   45.231
  Cycle:    539 Energy:      -155.424749  Gnorm:      0.034757  CPU:   45.318
  Cycle:    540 Energy:      -155.425600  Gnorm:      0.058425  CPU:   45.403
  Cycle:    541 Energy:      -155.426094  Gnorm:      0.049262  CPU:   45.472
  Cycle:    542 Energy:      -155.426585  Gnorm:      0.034839  CPU:   45.558
  Cycle:    543 Energy:      -155.427140  Gnorm:      0.033140  CPU:   45.644
  Cycle:    544 Energy:      -155.427565  Gnorm:      0.034884  CPU:   45.713
  Cycle:    545 Energy:      -155.427949  Gnorm:      0.037181  CPU:   45.781
  ** Hessian calculated **
  Cycle:    546 Energy:      -155.428290  Gnorm:      0.036020  CPU:   45.894
  Cycle:    547 Energy:      -155.428754  Gnorm:      0.033783  CPU:   45.980
  Cycle:    548 Energy:      -155.429238  Gnorm:      0.042782  CPU:   46.065
  Cycle:    549 Energy:      -155.429696  Gnorm:      0.050342  CPU:   46.151
  Cycle:    550 Energy:      -155.430198  Gnorm:      0.049623  CPU:   46.236
  Cycle:    551 Energy:      -155.431096  Gnorm:      0.042082  CPU:   46.321
  Cycle:    552 Energy:      -155.431695  Gnorm:      0.059576  CPU:   46.390
  Cycle:    553 Energy:      -155.432240  Gnorm:      0.060249  CPU:   46.475
  Cycle:    554 Energy:      -155.432768  Gnorm:      0.041436  CPU:   46.561
  Cycle:    555 Energy:      -155.433367  Gnorm:      0.062685  CPU:   46.645
  ** Hessian calculated **
  Cycle:    556 Energy:      -155.433912  Gnorm:      0.046247  CPU:   46.758
  Cycle:    557 Energy:      -155.434443  Gnorm:      0.059866  CPU:   46.842
  Cycle:    558 Energy:      -155.435004  Gnorm:      0.059202  CPU:   46.927
  Cycle:    559 Energy:      -155.435602  Gnorm:      0.045530  CPU:   47.012
  Cycle:    560 Energy:      -155.436493  Gnorm:      0.044248  CPU:   47.098
  Cycle:    561 Energy:      -155.437170  Gnorm:      0.030806  CPU:   47.166
  Cycle:    562 Energy:      -155.437759  Gnorm:      0.032677  CPU:   47.252
  Cycle:    563 Energy:      -155.438234  Gnorm:      0.047762  CPU:   47.320
  Cycle:    564 Energy:      -155.438648  Gnorm:      0.042252  CPU:   47.389
  Cycle:    565 Energy:      -155.438946  Gnorm:      0.041433  CPU:   47.457
  ** Hessian calculated **
  Cycle:    566 Energy:      -155.439226  Gnorm:      0.044848  CPU:   47.570
  Cycle:    567 Energy:      -155.439681  Gnorm:      0.051058  CPU:   47.655
  Cycle:    568 Energy:      -155.440177  Gnorm:      0.035065  CPU:   47.740
  Cycle:    569 Energy:      -155.440691  Gnorm:      0.040588  CPU:   47.825
  Cycle:    570 Energy:      -155.441400  Gnorm:      0.042278  CPU:   47.910
  Cycle:    571 Energy:      -155.442355  Gnorm:      0.038489  CPU:   47.995
  Cycle:    572 Energy:      -155.443135  Gnorm:      0.062176  CPU:   48.063
  Cycle:    573 Energy:      -155.443698  Gnorm:      0.061287  CPU:   48.131
  Cycle:    574 Energy:      -155.444247  Gnorm:      0.047967  CPU:   48.216
  Cycle:    575 Energy:      -155.444897  Gnorm:      0.082276  CPU:   48.300
  ** Hessian calculated **
  Cycle:    576 Energy:      -155.445532  Gnorm:      0.051013  CPU:   48.412
  Cycle:    577 Energy:      -155.446019  Gnorm:      0.058465  CPU:   48.497
  Cycle:    578 Energy:      -155.446574  Gnorm:      0.053059  CPU:   48.581
  Cycle:    579 Energy:      -155.447326  Gnorm:      0.044788  CPU:   48.665
  Cycle:    580 Energy:      -155.448257  Gnorm:      0.051839  CPU:   48.750
  Cycle:    581 Energy:      -155.448893  Gnorm:      0.055867  CPU:   48.818
  Cycle:    582 Energy:      -155.449406  Gnorm:      0.041093  CPU:   48.887
  Cycle:    583 Energy:      -155.449938  Gnorm:      0.036051  CPU:   48.972
  Cycle:    584 Energy:      -155.450657  Gnorm:      0.046571  CPU:   49.057
  Cycle:    585 Energy:      -155.451075  Gnorm:      0.042309  CPU:   49.125
  ** Hessian calculated **
  Cycle:    586 Energy:      -155.451484  Gnorm:      0.041908  CPU:   49.237
  Cycle:    587 Energy:      -155.452098  Gnorm:      0.038436  CPU:   49.322
  Cycle:    588 Energy:      -155.452536  Gnorm:      0.044492  CPU:   49.407
  Cycle:    589 Energy:      -155.452998  Gnorm:      0.047259  CPU:   49.508
  Cycle:    590 Energy:      -155.453716  Gnorm:      0.056592  CPU:   49.593
  Cycle:    591 Energy:      -155.454687  Gnorm:      0.059674  CPU:   49.677
  Cycle:    592 Energy:      -155.455415  Gnorm:      0.058863  CPU:   49.745
  Cycle:    593 Energy:      -155.456155  Gnorm:      0.063225  CPU:   49.829
  Cycle:    594 Energy:      -155.456809  Gnorm:      0.049005  CPU:   49.913
  Cycle:    595 Energy:      -155.457467  Gnorm:      0.057082  CPU:   49.997
  ** Hessian calculated **
  Cycle:    596 Energy:      -155.458091  Gnorm:      0.052279  CPU:   50.108
  Cycle:    597 Energy:      -155.458723  Gnorm:      0.064586  CPU:   50.192
  Cycle:    598 Energy:      -155.459614  Gnorm:      0.059329  CPU:   50.277
  Cycle:    599 Energy:      -155.460386  Gnorm:      0.062439  CPU:   50.361
  Cycle:    600 Energy:      -155.461464  Gnorm:      0.047745  CPU:   50.446
  Cycle:    601 Energy:      -155.462180  Gnorm:      0.036736  CPU:   50.514
  Cycle:    602 Energy:      -155.462705  Gnorm:      0.031092  CPU:   50.582
  Cycle:    603 Energy:      -155.463301  Gnorm:      0.057959  CPU:   50.666
  Cycle:    604 Energy:      -155.463984  Gnorm:      0.046632  CPU:   50.750
  Cycle:    605 Energy:      -155.464432  Gnorm:      0.067950  CPU:   50.818
  ** Hessian calculated **
  Cycle:    606 Energy:      -155.464867  Gnorm:      0.045816  CPU:   50.930
  Cycle:    607 Energy:      -155.465556  Gnorm:      0.055380  CPU:   51.014
  Cycle:    608 Energy:      -155.466118  Gnorm:      0.032346  CPU:   51.098
  Cycle:    609 Energy:      -155.466634  Gnorm:      0.039608  CPU:   51.182
  Cycle:    610 Energy:      -155.467344  Gnorm:      0.046757  CPU:   51.267
  Cycle:    611 Energy:      -155.468598  Gnorm:      0.059325  CPU:   51.350
  Cycle:    612 Energy:      -155.469489  Gnorm:      0.065176  CPU:   51.418
  Cycle:    613 Energy:      -155.470410  Gnorm:      0.068260  CPU:   51.501
  Cycle:    614 Energy:      -155.471103  Gnorm:      0.052047  CPU:   51.568
  Cycle:    615 Energy:      -155.471852  Gnorm:      0.063549  CPU:   51.651
  ** Hessian calculated **
  Cycle:    616 Energy:      -155.472660  Gnorm:      0.050911  CPU:   51.763
  Cycle:    617 Energy:      -155.473304  Gnorm:      0.072470  CPU:   51.846
  Cycle:    618 Energy:      -155.474190  Gnorm:      0.064855  CPU:   51.930
  Cycle:    619 Energy:      -155.475081  Gnorm:      0.064044  CPU:   52.013
  Cycle:    620 Energy:      -155.476413  Gnorm:      0.052470  CPU:   52.097
  Cycle:    621 Energy:      -155.477291  Gnorm:      0.041987  CPU:   52.164
  Cycle:    622 Energy:      -155.477880  Gnorm:      0.035637  CPU:   52.232
  Cycle:    623 Energy:      -155.478492  Gnorm:      0.070327  CPU:   52.315
  Cycle:    624 Energy:      -155.479330  Gnorm:      0.059954  CPU:   52.399
  Cycle:    625 Energy:      -155.479935  Gnorm:      0.054460  CPU:   52.466
  ** Hessian calculated **
  Cycle:    626 Energy:      -155.480506  Gnorm:      0.057020  CPU:   52.578
  Cycle:    627 Energy:      -155.481160  Gnorm:      0.061549  CPU:   52.661
  Cycle:    628 Energy:      -155.481766  Gnorm:      0.033835  CPU:   52.745
  Cycle:    629 Energy:      -155.482304  Gnorm:      0.036945  CPU:   52.829
  Cycle:    630 Energy:      -155.483169  Gnorm:      0.054442  CPU:   52.913
  Cycle:    631 Energy:      -155.484469  Gnorm:      0.075287  CPU:   52.996
  Cycle:    632 Energy:      -155.485639  Gnorm:      0.074867  CPU:   53.063
  Cycle:    633 Energy:      -155.486773  Gnorm:      0.070252  CPU:   53.130
  Cycle:    634 Energy:      -155.487835  Gnorm:      0.056997  CPU:   53.214
  Cycle:    635 Energy:      -155.488701  Gnorm:      0.078620  CPU:   53.281
  ** Hessian calculated **
  Cycle:    636 Energy:      -155.489580  Gnorm:      0.057189  CPU:   53.392
  Cycle:    637 Energy:      -155.490552  Gnorm:      0.076811  CPU:   53.475
  Cycle:    638 Energy:      -155.491595  Gnorm:      0.075299  CPU:   53.559
  Cycle:    639 Energy:      -155.492822  Gnorm:      0.060600  CPU:   53.642
  Cycle:    640 Energy:      -155.494456  Gnorm:      0.056653  CPU:   53.725
  Cycle:    641 Energy:      -155.495497  Gnorm:      0.044046  CPU:   53.792
  Cycle:    642 Energy:      -155.495974  Gnorm:      0.054626  CPU:   53.860
  Cycle:    643 Energy:      -155.496592  Gnorm:      0.040306  CPU:   53.943
  Cycle:    644 Energy:      -155.497858  Gnorm:      0.055476  CPU:   54.027
  Cycle:    645 Energy:      -155.498726  Gnorm:      0.062480  CPU:   54.094
  ** Hessian calculated **
  Cycle:    646 Energy:      -155.499573  Gnorm:      0.056017  CPU:   54.207
  Cycle:    647 Energy:      -155.500801  Gnorm:      0.044633  CPU:   54.290
  Cycle:    648 Energy:      -155.501384  Gnorm:      0.057270  CPU:   54.358
  Cycle:    649 Energy:      -155.501906  Gnorm:      0.044487  CPU:   54.441
  Cycle:    650 Energy:      -155.503128  Gnorm:      0.060132  CPU:   54.524
  Cycle:    651 Energy:      -155.504869  Gnorm:      0.071292  CPU:   54.607
  Cycle:    652 Energy:      -155.506374  Gnorm:      0.071371  CPU:   54.674
  Cycle:    653 Energy:      -155.507782  Gnorm:      0.077963  CPU:   54.756
  Cycle:    654 Energy:      -155.509021  Gnorm:      0.068279  CPU:   54.839
  Cycle:    655 Energy:      -155.510400  Gnorm:      0.081201  CPU:   54.905
  ** Hessian calculated **
  Cycle:    656 Energy:      -155.511715  Gnorm:      0.070085  CPU:   55.016
  Cycle:    657 Energy:      -155.513043  Gnorm:      0.078085  CPU:   55.098
  Cycle:    658 Energy:      -155.514474  Gnorm:      0.084511  CPU:   55.180
  Cycle:    659 Energy:      -155.516148  Gnorm:      0.088635  CPU:   55.263
  Cycle:    660 Energy:      -155.518645  Gnorm:      0.070667  CPU:   55.346
  Cycle:    661 Energy:      -155.520335  Gnorm:      0.051348  CPU:   55.412
  Cycle:    662 Energy:      -155.521022  Gnorm:      0.055908  CPU:   55.479
  Cycle:    663 Energy:      -155.521839  Gnorm:      0.055134  CPU:   55.562
  Cycle:    664 Energy:      -155.523987  Gnorm:      0.062264  CPU:   55.645
  Cycle:    665 Energy:      -155.525583  Gnorm:      0.098798  CPU:   55.711
  ** Hessian calculated **
  Cycle:    666 Energy:      -155.527172  Gnorm:      0.065450  CPU:   55.823
  Cycle:    667 Energy:      -155.529288  Gnorm:      0.076100  CPU:   55.905
  Cycle:    668 Energy:      -155.530219  Gnorm:      0.053359  CPU:   55.971
  Cycle:    669 Energy:      -155.531144  Gnorm:      0.053974  CPU:   56.054
  Cycle:    670 Energy:      -155.533453  Gnorm:      0.084644  CPU:   56.137
  Cycle:    671 Energy:      -155.536354  Gnorm:      0.137240  CPU:   56.219
  Cycle:    672 Energy:      -155.539602  Gnorm:      0.102943  CPU:   56.301
  Cycle:    673 Energy:      -155.542923  Gnorm:      0.113141  CPU:   56.382
  Cycle:    674 Energy:      -155.546615  Gnorm:      0.108829  CPU:   56.463
  Cycle:    675 Energy:      -155.555748  Gnorm:      0.264072  CPU:   56.529
  ** Hessian calculated **
  Cycle:    676 Energy:      -155.622876  Gnorm:      0.269801  CPU:   56.665
  Cycle:    677 Energy:      -155.624739  Gnorm:      0.315398  CPU:   56.746
  ** Hessian calculated **
  Cycle:    678 Energy:      -155.634980  Gnorm:      0.175122  CPU:   56.855
  Cycle:    679 Energy:      -155.639174  Gnorm:      0.062541  CPU:   56.920
  Cycle:    680 Energy:      -155.642290  Gnorm:      0.091325  CPU:   57.000
  Cycle:    681 Energy:      -155.644544  Gnorm:      0.131801  CPU:   57.065
  Cycle:    682 Energy:      -155.650584  Gnorm:      0.138391  CPU:   57.146
  Cycle:    683 Energy:      -155.663355  Gnorm:      0.170675  CPU:   57.226
  Cycle:    684 Energy:      -155.684952  Gnorm:      0.203795  CPU:   57.306
  Cycle:    685 Energy:      -155.707154  Gnorm:      0.287375  CPU:   57.366
  Cycle:    686 Energy:      -155.790720  Gnorm:      0.508371  CPU:   57.432
  Cycle:    687 Energy:      -155.862648  Gnorm:      0.515200  CPU:   57.477
  ** Hessian calculated **
  Cycle:    688 Energy:      -156.186377  Gnorm:      0.509207  CPU:   57.595
  ** Hessian calculated **
  Cycle:    689 Energy:      -156.376716  Gnorm:      0.088920  CPU:   57.693
  Cycle:    690 Energy:      -156.381072  Gnorm:      0.060476  CPU:   57.738
  Cycle:    691 Energy:      -156.382920  Gnorm:      0.009216  CPU:   57.783
  Cycle:    692 Energy:      -156.382966  Gnorm:      0.003477  CPU:   57.828
  Cycle:    693 Energy:      -156.382970  Gnorm:      0.001279  CPU:   57.873
  Cycle:    694 Energy:      -156.382973  Gnorm:      0.000526  CPU:   57.928


  **** Optimisation achieved ****


  Final energy =    -156.38297320 eV      
  Final Gnorm  =       0.00012810

  Components of energy : 

--------------------------------------------------------------------------------
  Interatomic potentials     =          12.60350840 eV    
  Monopole - monopole (real) =         -68.82505810 eV    
  Monopole - monopole (recip)=        -100.16142349 eV    
  Monopole - monopole (total)=        -168.98648159 eV    
--------------------------------------------------------------------------------
  Total lattice energy       =        -156.38297320 eV    
--------------------------------------------------------------------------------
  Total lattice energy       =          -15088.5664 kJ/(mole unit cells)
--------------------------------------------------------------------------------

  Final fractional coordinates of atoms :

--------------------------------------------------------------------------------
   No.  Atomic        x           y          z          Radius
        Label       (Frac)      (Frac)     (Frac)       (Angs) 
--------------------------------------------------------------------------------
     1  Ti    c     0.159795    0.081136    0.333884    0.000000
     2  Ti    c     0.039600    0.264046    0.401793    0.000000
     3  Ti    c     0.403980    0.288395    0.882276    0.000000
     4  Ti    c     0.256172    0.491030    0.007226    0.000000
     5  O     c     0.181916    0.276059    0.098152    0.000000
     6  O     c     0.559089    0.840693    0.960422    0.000000
     7  O     c     0.073353    0.156839    0.511163    0.000000
     8  O     c     0.338625    0.049428    0.130911    0.000000
     9  O     c     0.089015    0.536486    0.239377    0.000000
    10  O     c     0.400737    0.475794    0.753144    0.000000
    11  O     c     0.615542    0.268393    0.713497    0.000000
    12  O     c     0.868112    0.726313    0.351843    0.000000
--------------------------------------------------------------------------------

  Final Cartesian lattice vectors (Angstroms) :

        3.485544   -6.299202   -0.052271
       -4.029753   14.882181   -0.023259
       -1.516521   -0.926018    5.036364


  Final cell parameters and derivatives :

--------------------------------------------------------------------------------
       a            7.199424 Angstrom     dE/de1(xx)     0.000038 eV/strain
       b           15.418131 Angstrom     dE/de2(yy)     0.000131 eV/strain
       c            5.340628 Angstrom     dE/de3(zz)    -0.000322 eV/strain
       alpha       95.426558 Degrees      dE/de4(yz)    -0.000032 eV/strain
       beta        89.576763 Degrees      dE/de5(xz)    -0.000073 eV/strain
       gamma      166.184908 Degrees      dE/de6(xy)    -0.000108 eV/strain
--------------------------------------------------------------------------------

  Primitive cell volume =           131.732530 Angs**3

  Density of cell =      4.027736 g/cm**3

  Non-primitive cell volume =           131.732530 Angs**3


  Final internal derivatives :

--------------------------------------------------------------------------------
   No.  Atomic          a             b             c           Radius
        Label          (eV)          (eV)          (eV)        (eV/Angs)
--------------------------------------------------------------------------------
      1 Ti    c       0.000000      0.000000      0.000000      0.000000
      2 Ti    c      -0.001375      0.003043      0.000453      0.000000
      3 Ti    c      -0.000499      0.000905     -0.000105      0.000000
      4 Ti    c      -0.000299      0.000596      0.000044      0.000000
      5 O     c       0.000795     -0.001465     -0.000634      0.000000
      6 O     c       0.000040     -0.000131      0.000228      0.000000
      7 O     c       0.000767     -0.001823      0.000038      0.000000
      8 O     c       0.000219     -0.000383     -0.000255      0.000000
      9 O     c      -0.000480      0.001228      0.000168      0.000000
     10 O     c       0.000318     -0.000878     -0.000247      0.000000
     11 O     c       0.000418     -0.000782      0.000009      0.000000
     12 O     c       0.000309     -0.000902      0.000347      0.000000
--------------------------------------------------------------------------------
  Maximum abs         0.001375      0.003043      0.000634      0.000000
--------------------------------------------------------------------------------


  Time to end of optimisation =      57.9731 seconds


  Peak dynamic memory used =       1.84 MB 


  Timing analysis for GULP :

--------------------------------------------------------------------------------
  Task / Subroutine                                          Time (Seconds)
--------------------------------------------------------------------------------
  Calculation of reciprocal space energy and derivatives          0.9001
  Calculation of real space energy and derivatives               56.8990
  Calculation and manipulation of Hessian matrix                  0.0075
  Calculation of matrix inversion                                 0.0137
  Global summation overhead                                       0.0043
--------------------------------------------------------------------------------
  Total CPU time                                                 57.9731
--------------------------------------------------------------------------------


  Job Finished at 11:13.09 29th May        2024                               

