********************************************************************************
*                       GENERAL UTILITY LATTICE PROGRAM                        *
*                                 Julian Gale                                  *
*                       Curtin Institute for Computation                       *
*                    School of Molecular and Life Sciences                     *
*                    Curtin University, Western Australia                      *
********************************************************************************
* Version = 6.0.0 * Last modified =  12th July 2021                            *
********************************************************************************
*  optimise     - perform optimisation run                                     *
*  conp         - constant pressure calculation                                *
*  conjugate    - use conjugate gradients minimiser                            *
********************************************************************************

  Job Started  at 11:05.29 29th May        2024                               

  Number of CPUs =     1


  Total number of configurations input =      1

********************************************************************************
*  Input for Configuration =   1                                               *
********************************************************************************

  Formula = Ti4O8                                                       

  Number of irreducible atoms/shells =      12


  Total number atoms/shells =      12

  Dimensionality = 3               :  Bulk   



  Cartesian lattice vectors (Angstroms) :

        6.047285    0.663826    1.489895
        0.240203    6.789505   -1.008677
        0.665658   -0.049414    3.460343

  Cell parameters (Angstroms/Degrees):

  a =       6.2634    alpha =  98.7114
  b =       6.8682    beta  =  65.5153
  c =       3.5241    gamma =  84.0534

  Initial cell volume =         134.024851 Angs**3

  Temperature of configuration =   0.00     K 

  Pressure of configuration =         0.000 GPa 

  Fractional coordinates of asymmetric unit :

--------------------------------------------------------------------------------
   No.  Atomic       x           y          z         Charge      Occupancy
        Label      (Frac)      (Frac)     (Frac)        (e)         (Frac)  
--------------------------------------------------------------------------------
      1 Ti    c    0.612534    0.097486    0.110753     2.19600    1.000000    
      2 Ti    c    0.612531 *  0.599636 *  0.110743 *   2.19600    1.000000    
      3 Ti    c    0.632699 *  0.227545 *  0.768379 *   2.19600    1.000000    
      4 Ti    c    0.219654 *  0.637188 *  0.528279 *   2.19600    1.000000    
      5 O     c    0.426336 *  0.847520 *  0.110707 *  -1.09800    1.000000    
      6 O     c    0.941193 *  0.426507 *  0.110739 *  -1.09800    1.000000    
      7 O     c    0.941209 *  0.928662 *  0.110737 *  -1.09800    1.000000    
      8 O     c    0.426324 *  0.345366 *  0.110709 *  -1.09800    1.000000    
      9 O     c    0.249439 *  0.491314 *  0.887217 *  -1.09800    1.000000    
     10 O     c    0.616780 *  0.940630 *  0.514969 *  -1.09800    1.000000    
     11 O     c    0.790382 *  0.427917 *  0.819748 *  -1.09800    1.000000    
     12 O     c    0.126961 *  0.926287 *  0.610444 *  -1.09800    1.000000    
--------------------------------------------------------------------------------



********************************************************************************
*  General input information                                                   *
********************************************************************************

  Species output for all configurations : 

--------------------------------------------------------------------------------
  Species    Type    Atomic    Atomic    Charge       Radii (Angs)     Library
                     Number     Mass       (e)     Cova   Ionic  VDW   Symbol
--------------------------------------------------------------------------------
    Ti       Core       22      47.88   2.196000   1.470  0.000  2.190          
    O        Core        8      16.00  -1.098000   0.730  0.000  1.360          
--------------------------------------------------------------------------------


  Lattice summation method               =    Ewald          (3-D)
                                         =    Parry          (2-D)
                                         =    Saunders et al (1-D)
  Accuracy factor for lattice sums       =   12.000


  Analytic derivatives to be used

  Time limit = Infinity

  Maximum range for interatomic potentials =    100000.000000 Angstroms

  General interatomic potentials :

--------------------------------------------------------------------------------
Atom  Types   Potential      Parameter       Value         Units   Cutoffs(Ang)
  1     2                                                            Min /  Max 
--------------------------------------------------------------------------------
Ti   c Ti   c Buckingham    Buckingham A     31120.100    eV        0.000 15.000
                            Buckingham rho  0.15400000    Ang       
                            Buckingham C     5.2500000    eV*Ang^6  
--------------------------------------------------------------------------------
O    c O    c Buckingham    Buckingham A     11782.700    eV        0.000 15.000
                            Buckingham rho  0.23400000    Ang       
                            Buckingham C     30.220000    eV*Ang^6  
--------------------------------------------------------------------------------
O    c Ti   c Buckingham    Buckingham A     16957.500    eV        0.000 15.000
                            Buckingham rho  0.19400000    Ang       
                            Buckingham C     12.590000    eV*Ang^6  
--------------------------------------------------------------------------------
Ti   c Ti   c Lennard       Lennard-Jones A  1.0000000    eV*Ang^m  0.000 15.000
                            Lennard-Jones B  0.0000000    eV*Ang^n  
                            Exponent m        12          None
                            Exponent n         6          None
--------------------------------------------------------------------------------
O    c O    c Lennard       Lennard-Jones A  1.0000000    eV*Ang^m  0.000 15.000
                            Lennard-Jones B  0.0000000    eV*Ang^n  
                            Exponent m        12          None
                            Exponent n         6          None
--------------------------------------------------------------------------------
O    c Ti   c Lennard       Lennard-Jones A  1.0000000    eV*Ang^m  0.000 15.000
                            Lennard-Jones B  0.0000000    eV*Ang^n  
                            Exponent m        12          None
                            Exponent n         6          None
--------------------------------------------------------------------------------

********************************************************************************
*  Output for configuration   1                                                *
********************************************************************************


  Components of energy : 

--------------------------------------------------------------------------------
  Interatomic potentials     =          53.88914639 eV    
  Monopole - monopole (real) =         -32.23965963 eV    
  Monopole - monopole (recip)=         -91.65900956 eV    
  Monopole - monopole (total)=        -123.89866919 eV    
--------------------------------------------------------------------------------
  Total lattice energy       =         -70.00952280 eV    
--------------------------------------------------------------------------------
  Total lattice energy       =           -6754.8488 kJ/(mole unit cells)
--------------------------------------------------------------------------------


  Number of variables =       39

  Maximum number of calculations  =          1000
  Maximum Hessian update interval =            10
  Maximum step size               =   1.000000000
  Maximum parameter tolerance     =   0.000010000
  Maximum function  tolerance     =   0.000010000
  Maximum gradient  tolerance     =   0.001000000
  Maximum gradient  component     =   0.010000000

  Symmetry not applied to optimisation

  Cell parameters to be optimised using strains

  Conjugate gradient optimiser to be used

  Lower half triangular hessian to be used

  Minimiser to switch to BFGS with exact hessian
  When gradient norm is less than     0.500000

  Start of bulk optimisation :

  Cycle:      0 Energy:       -70.009523  Gnorm:     13.395408  CPU:    0.030
  Cycle:      1 Energy:       -98.343644  Gnorm:      9.547416  CPU:    0.075
  Cycle:      2 Energy:      -109.275518  Gnorm:      4.884825  CPU:    0.111
  Cycle:      3 Energy:      -124.777608  Gnorm:      3.011958  CPU:    0.159
  Cycle:      4 Energy:      -131.558106  Gnorm:      3.305087  CPU:    0.196
  Cycle:      5 Energy:      -134.432262  Gnorm:      2.898466  CPU:    0.222
  Cycle:      6 Energy:      -137.438032  Gnorm:      2.030526  CPU:    0.257
  Cycle:      7 Energy:      -139.430729  Gnorm:      1.790808  CPU:    0.299
  Cycle:      8 Energy:      -141.452973  Gnorm:      1.201375  CPU:    0.341
  Cycle:      9 Energy:      -142.157530  Gnorm:      1.182674  CPU:    0.375
  Cycle:     10 Energy:      -142.541954  Gnorm:      0.757849  CPU:    0.409
  Cycle:     11 Energy:      -143.922049  Gnorm:      1.105340  CPU:    0.459
  Cycle:     12 Energy:      -144.432556  Gnorm:      1.419952  CPU:    0.504
  Cycle:     13 Energy:      -145.854432  Gnorm:      1.089318  CPU:    0.538
  Cycle:     14 Energy:      -146.901761  Gnorm:      1.171415  CPU:    0.582
  Cycle:     15 Energy:      -147.599367  Gnorm:      0.921707  CPU:    0.619
  Cycle:     16 Energy:      -148.247586  Gnorm:      0.923814  CPU:    0.663
  Cycle:     17 Energy:      -149.122817  Gnorm:      1.024516  CPU:    0.708
  Cycle:     18 Energy:      -150.124113  Gnorm:      1.208001  CPU:    0.747
  Cycle:     19 Energy:      -150.618643  Gnorm:      1.080615  CPU:    0.785
  Cycle:     20 Energy:      -151.571671  Gnorm:      0.627669  CPU:    0.832
  Cycle:     21 Energy:      -152.106335  Gnorm:      0.682613  CPU:    0.880
  Cycle:     22 Energy:      -152.571007  Gnorm:      0.756457  CPU:    0.918
  Cycle:     23 Energy:      -153.009845  Gnorm:      0.612766  CPU:    0.957
  Cycle:     24 Energy:      -153.244660  Gnorm:      0.438427  CPU:    0.999
  ** Hessian calculated **
  Cycle:     25 Energy:      -153.976976  Gnorm:      0.329304  CPU:    1.096
  Cycle:     26 Energy:      -154.279651  Gnorm:      0.287412  CPU:    1.138
  ** Hessian calculated **
  Cycle:     27 Energy:      -154.560552  Gnorm:      0.232104  CPU:    1.223
  Cycle:     28 Energy:      -154.655130  Gnorm:      0.225033  CPU:    1.257
  Cycle:     29 Energy:      -154.771763  Gnorm:      0.274096  CPU:    1.296
  Cycle:     30 Energy:      -154.821326  Gnorm:      0.232268  CPU:    1.337
  Cycle:     31 Energy:      -154.894623  Gnorm:      0.213611  CPU:    1.379
  Cycle:     32 Energy:      -155.008570  Gnorm:      0.230001  CPU:    1.418
  Cycle:     33 Energy:      -155.059697  Gnorm:      0.149353  CPU:    1.451
  Cycle:     34 Energy:      -155.104009  Gnorm:      0.113494  CPU:    1.492
  Cycle:     35 Energy:      -155.139483  Gnorm:      0.139816  CPU:    1.532
  Cycle:     36 Energy:      -155.169888  Gnorm:      0.192506  CPU:    1.565
  ** Hessian calculated **
  Cycle:     37 Energy:      -155.207853  Gnorm:      0.115599  CPU:    1.637
  Cycle:     38 Energy:      -155.228270  Gnorm:      0.100052  CPU:    1.678
  Cycle:     39 Energy:      -155.246245  Gnorm:      0.127664  CPU:    1.719
  Cycle:     40 Energy:      -155.294573  Gnorm:      0.253805  CPU:    1.767
  Cycle:     41 Energy:      -155.371309  Gnorm:      0.238466  CPU:    1.807
  Cycle:     42 Energy:      -155.435917  Gnorm:      0.196469  CPU:    1.841
  Cycle:     43 Energy:      -155.468782  Gnorm:      0.174643  CPU:    1.874
  Cycle:     44 Energy:      -155.516807  Gnorm:      0.164060  CPU:    1.915
  Cycle:     45 Energy:      -155.559002  Gnorm:      0.139487  CPU:    1.955
  Cycle:     46 Energy:      -155.585906  Gnorm:      0.131520  CPU:    1.990
  ** Hessian calculated **
  Cycle:     47 Energy:      -155.598881  Gnorm:      0.090517  CPU:    2.062
  Cycle:     48 Energy:      -155.613420  Gnorm:      0.076560  CPU:    2.110
  Cycle:     49 Energy:      -155.628646  Gnorm:      0.090332  CPU:    2.164
  Cycle:     50 Energy:      -155.650228  Gnorm:      0.087073  CPU:    2.220
  Cycle:     51 Energy:      -155.666363  Gnorm:      0.083581  CPU:    2.263
  Cycle:     52 Energy:      -155.677594  Gnorm:      0.101758  CPU:    2.306
  Cycle:     53 Energy:      -155.692136  Gnorm:      0.105109  CPU:    2.362
  Cycle:     54 Energy:      -155.716039  Gnorm:      0.135301  CPU:    2.416
  Cycle:     55 Energy:      -155.750772  Gnorm:      0.150734  CPU:    2.472
  Cycle:     56 Energy:      -155.780065  Gnorm:      0.121325  CPU:    2.516
  ** Hessian calculated **
  Cycle:     57 Energy:      -155.790701  Gnorm:      0.090843  CPU:    2.605
  Cycle:     58 Energy:      -155.804591  Gnorm:      0.085728  CPU:    2.659
  Cycle:     59 Energy:      -155.817190  Gnorm:      0.086049  CPU:    2.713
  Cycle:     60 Energy:      -155.830178  Gnorm:      0.100005  CPU:    2.769
  Cycle:     61 Energy:      -155.849808  Gnorm:      0.128534  CPU:    2.824
  Cycle:     62 Energy:      -155.878680  Gnorm:      0.157048  CPU:    2.881
  Cycle:     63 Energy:      -155.921110  Gnorm:      0.164284  CPU:    2.936
  Cycle:     64 Energy:      -155.951025  Gnorm:      0.148948  CPU:    2.983
  Cycle:     65 Energy:      -155.982061  Gnorm:      0.128831  CPU:    3.039
  Cycle:     66 Energy:      -156.012430  Gnorm:      0.151675  CPU:    3.096
  ** Hessian calculated **
  Cycle:     67 Energy:      -156.030949  Gnorm:      0.100449  CPU:    3.185
  Cycle:     68 Energy:      -156.045856  Gnorm:      0.105975  CPU:    3.242
  Cycle:     69 Energy:      -156.061098  Gnorm:      0.102805  CPU:    3.298
  Cycle:     70 Energy:      -156.082342  Gnorm:      0.122220  CPU:    3.356
  Cycle:     71 Energy:      -156.106250  Gnorm:      0.109464  CPU:    3.411
  Cycle:     72 Energy:      -156.123747  Gnorm:      0.107837  CPU:    3.458
  Cycle:     73 Energy:      -156.149026  Gnorm:      0.114840  CPU:    3.514
  Cycle:     74 Energy:      -156.189712  Gnorm:      0.190735  CPU:    3.572
  Cycle:     75 Energy:      -156.267295  Gnorm:      0.220107  CPU:    3.629
  Cycle:     76 Energy:      -156.337966  Gnorm:      0.178553  CPU:    3.678
  ** Hessian calculated **
  Cycle:     77 Energy:      -156.487550  Gnorm:      0.027601  CPU:    3.778
  Cycle:     78 Energy:      -156.488922  Gnorm:      0.006032  CPU:    3.826
  Cycle:     79 Energy:      -156.489028  Gnorm:      0.001204  CPU:    3.882


  **** Optimisation achieved ****


  Final energy =    -156.48903251 eV      
  Final Gnorm  =       0.00032874

  Components of energy : 

--------------------------------------------------------------------------------
  Interatomic potentials     =          12.22745216 eV    
  Monopole - monopole (real) =         -67.10763944 eV    
  Monopole - monopole (recip)=        -101.60884522 eV    
  Monopole - monopole (total)=        -168.71648466 eV    
--------------------------------------------------------------------------------
  Total lattice energy       =        -156.48903251 eV    
--------------------------------------------------------------------------------
  Total lattice energy       =          -15098.7995 kJ/(mole unit cells)
--------------------------------------------------------------------------------

  Final fractional coordinates of atoms :

--------------------------------------------------------------------------------
   No.  Atomic        x           y          z          Radius
        Label       (Frac)      (Frac)     (Frac)       (Angs) 
--------------------------------------------------------------------------------
     1  Ti    c     0.612534    0.097486    0.110753    0.000000
     2  Ti    c     0.031843    0.498831    0.975462    0.000000
     3  Ti    c     0.822199    0.298148    0.543086    0.000000
     4  Ti    c     0.322187    0.798160    0.543108    0.000000
     5  O     c     0.613224    0.799232    0.121300    0.000000
     6  O     c     0.116380    0.155187    0.963906    0.000000
     7  O     c     0.031157    0.797080    0.964916    0.000000
     8  O     c     0.527997    0.441134    0.122317    0.000000
     9  O     c     0.676818    0.616269    0.499086    0.000000
    10  O     c     0.500017    0.287322    0.595863    0.000000
    11  O     c     0.144375    0.308986    0.490337    0.000000
    12  O     c     0.967545    0.980054    0.587150    0.000000
--------------------------------------------------------------------------------

  Final Cartesian lattice vectors (Angstroms) :

        5.669792    1.794916    2.343210
        1.656824    5.907557   -1.521384
        1.006299   -0.076783    4.723275


  Final cell parameters and derivatives :

--------------------------------------------------------------------------------
       a            6.392096 Angstrom     dE/de1(xx)    -0.003482 eV/strain
       b            6.321306 Angstrom     dE/de2(yy)     0.000829 eV/strain
       c            4.829892 Angstrom     dE/de3(zz)     0.000024 eV/strain
       alpha      101.280438 Degrees      dE/de4(yz)    -0.000146 eV/strain
       beta        57.396112 Degrees      dE/de5(xz)     0.002091 eV/strain
       gamma       66.003512 Degrees      dE/de6(xy)    -0.000293 eV/strain
--------------------------------------------------------------------------------

  Primitive cell volume =           126.519712 Angs**3

  Density of cell =      4.193685 g/cm**3

  Non-primitive cell volume =           126.519712 Angs**3


  Final internal derivatives :

--------------------------------------------------------------------------------
   No.  Atomic          a             b             c           Radius
        Label          (eV)          (eV)          (eV)        (eV/Angs)
--------------------------------------------------------------------------------
      1 Ti    c       0.000000      0.000000      0.000000      0.000000
      2 Ti    c       0.002151      0.000511     -0.000308      0.000000
      3 Ti    c      -0.003222     -0.000315     -0.005278      0.000000
      4 Ti    c       0.000615      0.001584     -0.000319      0.000000
      5 O     c      -0.002124     -0.000991     -0.001442      0.000000
      6 O     c      -0.000397     -0.000024      0.001670      0.000000
      7 O     c      -0.000895     -0.002993      0.001228      0.000000
      8 O     c       0.002538      0.000014      0.001638      0.000000
      9 O     c       0.000408      0.000222      0.000709      0.000000
     10 O     c      -0.001673      0.000451     -0.000861      0.000000
     11 O     c       0.006360      0.002279      0.000377      0.000000
     12 O     c      -0.003525     -0.001845      0.001945      0.000000
--------------------------------------------------------------------------------
  Maximum abs         0.006360      0.002993      0.005278      0.000000
--------------------------------------------------------------------------------


  Time to end of optimisation =       3.9281 seconds


  Peak dynamic memory used =       1.84 MB 


  Timing analysis for GULP :

--------------------------------------------------------------------------------
  Task / Subroutine                                          Time (Seconds)
--------------------------------------------------------------------------------
  Calculation of reciprocal space energy and derivatives          0.1073
  Calculation of real space energy and derivatives                3.7937
  Calculation and manipulation of Hessian matrix                  0.0008
  Calculation of matrix inversion                                 0.0015
  Global summation overhead                                       0.0005
--------------------------------------------------------------------------------
  Total CPU time                                                  3.9281
--------------------------------------------------------------------------------


  Job Finished at 11:05.33 29th May        2024                               

