********************************************************************************
*                       GENERAL UTILITY LATTICE PROGRAM                        *
*                                 Julian Gale                                  *
*                       Curtin Institute for Computation                       *
*                    School of Molecular and Life Sciences                     *
*                    Curtin University, Western Australia                      *
********************************************************************************
* Version = 6.0.0 * Last modified =  12th July 2021                            *
********************************************************************************
*  optimise     - perform optimisation run                                     *
*  conp         - constant pressure calculation                                *
*  conjugate    - use conjugate gradients minimiser                            *
********************************************************************************

  Job Started  at 11:04.55 29th May        2024                               

  Number of CPUs =     1


  Total number of configurations input =      1

********************************************************************************
*  Input for Configuration =   1                                               *
********************************************************************************

  Formula = Ti4O8                                                       

  Number of irreducible atoms/shells =      12


  Total number atoms/shells =      12

  Dimensionality = 3               :  Bulk   



  Cartesian lattice vectors (Angstroms) :

        6.516516    0.000012   -1.387419
        0.000013    3.300762    0.000015
       -1.284009    0.000011    6.504345

  Cell parameters (Angstroms/Degrees):

  a =       6.6626    alpha =  89.9997
  b =       3.3008    beta  = 113.1863
  c =       6.6299    gamma =  89.9997

  Initial cell volume =         134.024851 Angs**3

  Temperature of configuration =   0.00     K 

  Pressure of configuration =         0.000 GPa 

  Fractional coordinates of asymmetric unit :

--------------------------------------------------------------------------------
   No.  Atomic       x           y          z         Charge      Occupancy
        Label      (Frac)      (Frac)     (Frac)        (e)         (Frac)  
--------------------------------------------------------------------------------
      1 Ti    c    0.376373    0.176530    0.845320     2.19600    1.000000    
      2 Ti    c    0.376373 *  0.645475 *  0.376373 *   2.19600    1.000000    
      3 Ti    c    0.710764 *  0.257404 *  0.333136 *   2.19600    1.000000    
      4 Ti    c    0.628807 *  0.205605 *  0.761286 *   2.19600    1.000000    
      5 O     c    0.259137 *  0.645474 *  0.024665 *  -1.09800    1.000000    
      6 O     c    0.024664 *  0.176528 *  0.728084 *  -1.09800    1.000000    
      7 O     c    0.259136 *  0.176529 *  0.493609 *  -1.09800    1.000000    
      8 O     c    0.024663 *  0.645477 *  0.259136 *  -1.09800    1.000000    
      9 O     c    0.891579 *  0.738353 *  0.892628 *  -1.09800    1.000000    
     10 O     c    0.895665 *  0.738331 *  0.425717 *  -1.09800    1.000000    
     11 O     c    0.893894 *  0.692902 *  0.190360 *  -1.09800    1.000000    
     12 O     c    0.893363 *  0.692917 *  0.659044 *  -1.09800    1.000000    
--------------------------------------------------------------------------------



********************************************************************************
*  General input information                                                   *
********************************************************************************

  Species output for all configurations : 

--------------------------------------------------------------------------------
  Species    Type    Atomic    Atomic    Charge       Radii (Angs)     Library
                     Number     Mass       (e)     Cova   Ionic  VDW   Symbol
--------------------------------------------------------------------------------
    Ti       Core       22      47.88   2.196000   1.470  0.000  2.190          
    O        Core        8      16.00  -1.098000   0.730  0.000  1.360          
--------------------------------------------------------------------------------


  Lattice summation method               =    Ewald          (3-D)
                                         =    Parry          (2-D)
                                         =    Saunders et al (1-D)
  Accuracy factor for lattice sums       =   12.000


  Analytic derivatives to be used

  Time limit = Infinity

  Maximum range for interatomic potentials =    100000.000000 Angstroms

  General interatomic potentials :

--------------------------------------------------------------------------------
Atom  Types   Potential      Parameter       Value         Units   Cutoffs(Ang)
  1     2                                                            Min /  Max 
--------------------------------------------------------------------------------
Ti   c Ti   c Buckingham    Buckingham A     31120.100    eV        0.000 15.000
                            Buckingham rho  0.15400000    Ang       
                            Buckingham C     5.2500000    eV*Ang^6  
--------------------------------------------------------------------------------
O    c O    c Buckingham    Buckingham A     11782.700    eV        0.000 15.000
                            Buckingham rho  0.23400000    Ang       
                            Buckingham C     30.220000    eV*Ang^6  
--------------------------------------------------------------------------------
O    c Ti   c Buckingham    Buckingham A     16957.500    eV        0.000 15.000
                            Buckingham rho  0.19400000    Ang       
                            Buckingham C     12.590000    eV*Ang^6  
--------------------------------------------------------------------------------
Ti   c Ti   c Lennard       Lennard-Jones A  1.0000000    eV*Ang^m  0.000 15.000
                            Lennard-Jones B  0.0000000    eV*Ang^n  
                            Exponent m        12          None
                            Exponent n         6          None
--------------------------------------------------------------------------------
O    c O    c Lennard       Lennard-Jones A  1.0000000    eV*Ang^m  0.000 15.000
                            Lennard-Jones B  0.0000000    eV*Ang^n  
                            Exponent m        12          None
                            Exponent n         6          None
--------------------------------------------------------------------------------
O    c Ti   c Lennard       Lennard-Jones A  1.0000000    eV*Ang^m  0.000 15.000
                            Lennard-Jones B  0.0000000    eV*Ang^n  
                            Exponent m        12          None
                            Exponent n         6          None
--------------------------------------------------------------------------------

********************************************************************************
*  Output for configuration   1                                                *
********************************************************************************


  Components of energy : 

--------------------------------------------------------------------------------
  Interatomic potentials     =         321.83850129 eV    
  Monopole - monopole (real) =          16.45934450 eV    
  Monopole - monopole (recip)=         -64.93718983 eV    
  Monopole - monopole (total)=         -48.47784533 eV    
--------------------------------------------------------------------------------
  Total lattice energy       =         273.36065597 eV    
--------------------------------------------------------------------------------
  Total lattice energy       =           26375.1246 kJ/(mole unit cells)
--------------------------------------------------------------------------------


  Number of variables =       39

  Maximum number of calculations  =          1000
  Maximum Hessian update interval =            10
  Maximum step size               =   1.000000000
  Maximum parameter tolerance     =   0.000010000
  Maximum function  tolerance     =   0.000010000
  Maximum gradient  tolerance     =   0.001000000
  Maximum gradient  component     =   0.010000000

  Symmetry not applied to optimisation

  Cell parameters to be optimised using strains

  Conjugate gradient optimiser to be used

  Lower half triangular hessian to be used

  Minimiser to switch to BFGS with exact hessian
  When gradient norm is less than     0.500000

  Start of bulk optimisation :

  Cycle:      0 Energy:       273.360656  Gnorm:    202.995517  CPU:    0.023
  Cycle:      1 Energy:       -24.523183  Gnorm:     19.994610  CPU:    0.063
  Cycle:      2 Energy:       -70.169969  Gnorm:     15.922467  CPU:    0.086
  Cycle:      3 Energy:      -116.947847  Gnorm:      9.405655  CPU:    0.117
  Cycle:      4 Energy:      -126.465021  Gnorm:      5.966606  CPU:    0.138
  Cycle:      5 Energy:      -136.312859  Gnorm:      2.948237  CPU:    0.169
  Cycle:      6 Energy:      -140.762624  Gnorm:      1.782228  CPU:    0.195
  Cycle:      7 Energy:      -142.256568  Gnorm:      1.464392  CPU:    0.221
  Cycle:      8 Energy:      -143.365096  Gnorm:      1.109530  CPU:    0.248
  Cycle:      9 Energy:      -144.121904  Gnorm:      1.219244  CPU:    0.275
  Cycle:     10 Energy:      -144.379128  Gnorm:      0.621158  CPU:    0.302
  Cycle:     11 Energy:      -144.897780  Gnorm:      0.699221  CPU:    0.328
  Cycle:     12 Energy:      -145.475551  Gnorm:      0.976039  CPU:    0.351
  Cycle:     13 Energy:      -145.770436  Gnorm:      0.946125  CPU:    0.373
  Cycle:     14 Energy:      -146.590664  Gnorm:      0.858593  CPU:    0.400
  Cycle:     15 Energy:      -147.183816  Gnorm:      0.894656  CPU:    0.422
  Cycle:     16 Energy:      -147.622360  Gnorm:      0.782782  CPU:    0.444
  Cycle:     17 Energy:      -148.205863  Gnorm:      0.938032  CPU:    0.471
  Cycle:     18 Energy:      -148.928099  Gnorm:      1.030067  CPU:    0.498
  Cycle:     19 Energy:      -149.747684  Gnorm:      0.967656  CPU:    0.525
  Cycle:     20 Energy:      -150.109738  Gnorm:      0.515871  CPU:    0.547
  Cycle:     21 Energy:      -150.480128  Gnorm:      0.533749  CPU:    0.574
  Cycle:     22 Energy:      -150.635578  Gnorm:      0.384838  CPU:    0.596
  ** Hessian calculated **
  Cycle:     23 Energy:      -150.937238  Gnorm:      0.483277  CPU:    0.655
  Cycle:     24 Energy:      -151.562046  Gnorm:      0.507346  CPU:    0.694
  Cycle:     25 Energy:      -151.712035  Gnorm:      0.350209  CPU:    0.728
  Cycle:     26 Energy:      -151.893590  Gnorm:      0.318465  CPU:    0.762
  Cycle:     27 Energy:      -152.070781  Gnorm:      0.404970  CPU:    0.796
  Cycle:     28 Energy:      -152.250072  Gnorm:      0.421407  CPU:    0.830
  Cycle:     29 Energy:      -152.648979  Gnorm:      0.639029  CPU:    0.864
  Cycle:     30 Energy:      -152.953560  Gnorm:      0.532835  CPU:    0.892
  Cycle:     31 Energy:      -153.244682  Gnorm:      0.371803  CPU:    0.920
  Cycle:     32 Energy:      -153.466314  Gnorm:      0.410578  CPU:    0.949
  ** Hessian calculated **
  Cycle:     33 Energy:      -153.586003  Gnorm:      0.189419  CPU:    1.015
  Cycle:     34 Energy:      -153.687752  Gnorm:      0.259215  CPU:    1.050
  Cycle:     35 Energy:      -153.805788  Gnorm:      0.286671  CPU:    1.086
  Cycle:     36 Energy:      -153.892599  Gnorm:      0.245679  CPU:    1.122
  Cycle:     37 Energy:      -153.958449  Gnorm:      0.158020  CPU:    1.159
  Cycle:     38 Energy:      -154.001821  Gnorm:      0.171894  CPU:    1.205
  Cycle:     39 Energy:      -154.051392  Gnorm:      0.127672  CPU:    1.251
  Cycle:     40 Energy:      -154.082341  Gnorm:      0.116706  CPU:    1.288
  Cycle:     41 Energy:      -154.133987  Gnorm:      0.219685  CPU:    1.330
  Cycle:     42 Energy:      -154.204883  Gnorm:      0.225652  CPU:    1.367
  ** Hessian calculated **
  Cycle:     43 Energy:      -154.251645  Gnorm:      0.194446  CPU:    1.437
  Cycle:     44 Energy:      -154.301937  Gnorm:      0.148887  CPU:    1.474
  Cycle:     45 Energy:      -154.359889  Gnorm:      0.178992  CPU:    1.511
  Cycle:     46 Energy:      -154.453466  Gnorm:      0.286220  CPU:    1.541
  Cycle:     47 Energy:      -154.568933  Gnorm:      0.265485  CPU:    1.571
  Cycle:     48 Energy:      -154.741315  Gnorm:      0.280550  CPU:    1.596
  Cycle:     49 Energy:      -154.862871  Gnorm:      0.286943  CPU:    1.621
  Cycle:     50 Energy:      -154.953511  Gnorm:      0.190116  CPU:    1.653
  Cycle:     51 Energy:      -155.036166  Gnorm:      0.232806  CPU:    1.684
  Cycle:     52 Energy:      -155.114842  Gnorm:      0.217074  CPU:    1.715
  ** Hessian calculated **
  Cycle:     53 Energy:      -155.273598  Gnorm:      0.150437  CPU:    1.787
  Cycle:     54 Energy:      -155.301550  Gnorm:      0.042027  CPU:    1.818
  Cycle:     55 Energy:      -155.331545  Gnorm:      0.145821  CPU:    1.850
  Cycle:     56 Energy:      -155.345663  Gnorm:      0.148629  CPU:    1.881
  Cycle:     57 Energy:      -155.346993  Gnorm:      0.109004  CPU:    1.907
  ** Hessian calculated **
  Cycle:     58 Energy:      -155.359826  Gnorm:      0.067752  CPU:    1.972
  Cycle:     59 Energy:      -155.367156  Gnorm:      0.075774  CPU:    2.003
  Cycle:     60 Energy:      -155.397601  Gnorm:      0.271683  CPU:    2.041
  Cycle:     61 Energy:      -155.590146  Gnorm:      0.705740  CPU:    2.090
  Cycle:     62 Energy:      -155.613502  Gnorm:      0.847247  CPU:    2.122
  ** Hessian calculated **
  Cycle:     63 Energy:      -156.143389  Gnorm:      0.437008  CPU:    2.194
  Cycle:     64 Energy:      -156.742984  Gnorm:      0.793328  CPU:    2.227
  Cycle:     65 Energy:      -157.441795  Gnorm:      0.751418  CPU:    2.259
  Cycle:     66 Energy:      -158.003981  Gnorm:      0.512046  CPU:    2.285
  Cycle:     67 Energy:      -158.263006  Gnorm:      0.418539  CPU:    2.311
  Cycle:     68 Energy:      -158.470523  Gnorm:      0.260380  CPU:    2.337
  Cycle:     69 Energy:      -158.605646  Gnorm:      0.246673  CPU:    2.369
  Cycle:     70 Energy:      -158.745070  Gnorm:      0.300350  CPU:    2.401
  Cycle:     71 Energy:      -158.897179  Gnorm:      0.288163  CPU:    2.433
  Cycle:     72 Energy:      -159.003682  Gnorm:      0.268788  CPU:    2.459
  ** Hessian calculated **
  Cycle:     73 Energy:      -159.197190  Gnorm:      0.055292  CPU:    2.531
  Cycle:     74 Energy:      -159.200845  Gnorm:      0.017788  CPU:    2.557
  Cycle:     75 Energy:      -159.201418  Gnorm:      0.003183  CPU:    2.583
  Cycle:     76 Energy:      -159.201429  Gnorm:      0.000888  CPU:    2.609


  **** Optimisation achieved ****


  Final energy =    -159.20142962 eV      
  Final Gnorm  =       0.00013042

  Components of energy : 

--------------------------------------------------------------------------------
  Interatomic potentials     =          12.37896696 eV    
  Monopole - monopole (real) =         -68.43759173 eV    
  Monopole - monopole (recip)=        -103.14280485 eV    
  Monopole - monopole (total)=        -171.58039658 eV    
--------------------------------------------------------------------------------
  Total lattice energy       =        -159.20142962 eV    
--------------------------------------------------------------------------------
  Total lattice energy       =          -15360.5043 kJ/(mole unit cells)
--------------------------------------------------------------------------------

  Final fractional coordinates of atoms :

--------------------------------------------------------------------------------
   No.  Atomic        x           y          z          Radius
        Label       (Frac)      (Frac)     (Frac)       (Angs) 
--------------------------------------------------------------------------------
     1  Ti    c     0.376373    0.176530    0.845320    0.000000
     2  Ti    c     0.376371    0.676525    0.345320    0.000000
     3  Ti    c     0.876371    0.676525    0.345321    0.000000
     4  Ti    c     0.876374    0.176528    0.845320    0.000000
     5  O     c     0.376370    0.676520    0.042033    0.000000
     6  O     c     0.073085    0.479812    0.845315    0.000000
     7  O     c     0.376374    0.676532    0.648605    0.000000
     8  O     c     0.179657    0.373239    0.345321    0.000000
     9  O     c     0.679659    0.873241    0.845322    0.000000
    10  O     c     0.876369    0.176527    0.542034    0.000000
    11  O     c     0.876374    0.176523    0.148605    0.000000
    12  O     c     0.573085    0.979811    0.345319    0.000000
--------------------------------------------------------------------------------

  Final Cartesian lattice vectors (Angstroms) :

        6.913145    1.256855   -0.232727
        0.783257    2.904312    0.057126
        0.248573   -0.191854    6.346235


  Final cell parameters and derivatives :

--------------------------------------------------------------------------------
       a            7.030321 Angstrom     dE/de1(xx)     0.001011 eV/strain
       b            3.008618 Angstrom     dE/de2(yy)    -0.000275 eV/strain
       c            6.353998 Angstrom     dE/de3(zz)    -0.000424 eV/strain
       alpha       89.999917 Degrees      dE/de4(yz)    -0.000232 eV/strain
       beta        89.999557 Degrees      dE/de5(xz)     0.000094 eV/strain
       gamma       64.662574 Degrees      dE/de6(xy)    -0.000518 eV/strain
--------------------------------------------------------------------------------

  Primitive cell volume =           121.468359 Angs**3

  Density of cell =      4.368083 g/cm**3

  Non-primitive cell volume =           121.468359 Angs**3


  Final internal derivatives :

--------------------------------------------------------------------------------
   No.  Atomic          a             b             c           Radius
        Label          (eV)          (eV)          (eV)        (eV/Angs)
--------------------------------------------------------------------------------
      1 Ti    c       0.000000      0.000000      0.000000      0.000000
      2 Ti    c      -0.000596     -0.000036      0.000043      0.000000
      3 Ti    c      -0.000185     -0.000180      0.000320      0.000000
      4 Ti    c       0.001701      0.000473      0.000396      0.000000
      5 O     c      -0.000779     -0.001169     -0.001317      0.000000
      6 O     c      -0.003601     -0.000345     -0.000892      0.000000
      7 O     c       0.000870      0.000552      0.000028      0.000000
      8 O     c       0.000150     -0.000125      0.000224      0.000000
      9 O     c       0.001210      0.000013     -0.000016      0.000000
     10 O     c      -0.000086      0.000069     -0.000183      0.000000
     11 O     c      -0.000190     -0.000026     -0.000089      0.000000
     12 O     c       0.000021     -0.000036      0.000403      0.000000
--------------------------------------------------------------------------------
  Maximum abs         0.003601      0.001169      0.001317      0.000000
--------------------------------------------------------------------------------


  Time to end of optimisation =       2.6353 seconds


  Peak dynamic memory used =       1.84 MB 


  Timing analysis for GULP :

--------------------------------------------------------------------------------
  Task / Subroutine                                          Time (Seconds)
--------------------------------------------------------------------------------
  Calculation of reciprocal space energy and derivatives          0.1027
  Calculation of real space energy and derivatives                2.5069
  Calculation and manipulation of Hessian matrix                  0.0008
  Calculation of matrix inversion                                 0.0013
  Global summation overhead                                       0.0005
--------------------------------------------------------------------------------
  Total CPU time                                                  2.6353
--------------------------------------------------------------------------------


  Job Finished at 11:04.58 29th May        2024                               

