********************************************************************************
*                       GENERAL UTILITY LATTICE PROGRAM                        *
*                                 Julian Gale                                  *
*                       Curtin Institute for Computation                       *
*                    School of Molecular and Life Sciences                     *
*                    Curtin University, Western Australia                      *
********************************************************************************
* Version = 6.0.0 * Last modified =  12th July 2021                            *
********************************************************************************
*  optimise     - perform optimisation run                                     *
*  conp         - constant pressure calculation                                *
*  conjugate    - use conjugate gradients minimiser                            *
********************************************************************************

  Job Started  at 11:05.05 29th May        2024                               

  Number of CPUs =     1


  Total number of configurations input =      1

********************************************************************************
*  Input for Configuration =   1                                               *
********************************************************************************

  Formula = Ti4O8                                                       

  Number of irreducible atoms/shells =      12


  Total number atoms/shells =      12

  Dimensionality = 3               :  Bulk   



  Cartesian lattice vectors (Angstroms) :

        5.929244    0.001796    1.461394
       -0.073284    5.567187   -0.014004
        0.142019   -0.717846    4.094690

  Cell parameters (Angstroms/Degrees):

  a =       6.1067    alpha = 100.1070
  b =       5.5677    beta  =  74.4144
  c =       4.1596    gamma =  90.7499

  Initial cell volume =         134.024851 Angs**3

  Temperature of configuration =   0.00     K 

  Pressure of configuration =         0.000 GPa 

  Fractional coordinates of asymmetric unit :

--------------------------------------------------------------------------------
   No.  Atomic       x           y          z         Charge      Occupancy
        Label      (Frac)      (Frac)     (Frac)        (e)         (Frac)  
--------------------------------------------------------------------------------
      1 Ti    c    0.171993    0.079737    0.042582     2.19600    1.000000    
      2 Ti    c    0.668599 *  0.935050 *  0.539204 *   2.19600    1.000000    
      3 Ti    c    0.953091 *  0.366076 *  0.254715 *   2.19600    1.000000    
      4 Ti    c    0.031703 *  0.217214 *  0.075182 *   2.19600    1.000000    
      5 O     c    0.240256 *  0.625138 *  0.597337 *  -1.09800    1.000000    
      6 O     c    0.540025 *  0.251702 *  0.470932 *  -1.09800    1.000000    
      7 O     c    0.011227 *  0.056171 *  0.373161 *  -1.09800    1.000000    
      8 O     c    0.338025 *  0.820689 *  0.126147 *  -1.09800    1.000000    
      9 O     c    0.787018 *  0.625132 *  0.171175 *  -1.09800    1.000000    
     10 O     c    0.376821 *  0.217216 *  0.730062 *  -1.09800    1.000000    
     11 O     c    0.152974 *  0.786179 *  0.953908 *  -1.09800    1.000000    
     12 O     c    0.945788 *  0.562331 *  0.730061 *  -1.09800    1.000000    
--------------------------------------------------------------------------------



********************************************************************************
*  General input information                                                   *
********************************************************************************

  Species output for all configurations : 

--------------------------------------------------------------------------------
  Species    Type    Atomic    Atomic    Charge       Radii (Angs)     Library
                     Number     Mass       (e)     Cova   Ionic  VDW   Symbol
--------------------------------------------------------------------------------
    Ti       Core       22      47.88   2.196000   1.470  0.000  2.190          
    O        Core        8      16.00  -1.098000   0.730  0.000  1.360          
--------------------------------------------------------------------------------


  Lattice summation method               =    Ewald          (3-D)
                                         =    Parry          (2-D)
                                         =    Saunders et al (1-D)
  Accuracy factor for lattice sums       =   12.000


  Analytic derivatives to be used

  Time limit = Infinity

  Maximum range for interatomic potentials =    100000.000000 Angstroms

  General interatomic potentials :

--------------------------------------------------------------------------------
Atom  Types   Potential      Parameter       Value         Units   Cutoffs(Ang)
  1     2                                                            Min /  Max 
--------------------------------------------------------------------------------
Ti   c Ti   c Buckingham    Buckingham A     31120.100    eV        0.000 15.000
                            Buckingham rho  0.15400000    Ang       
                            Buckingham C     5.2500000    eV*Ang^6  
--------------------------------------------------------------------------------
O    c O    c Buckingham    Buckingham A     11782.700    eV        0.000 15.000
                            Buckingham rho  0.23400000    Ang       
                            Buckingham C     30.220000    eV*Ang^6  
--------------------------------------------------------------------------------
O    c Ti   c Buckingham    Buckingham A     16957.500    eV        0.000 15.000
                            Buckingham rho  0.19400000    Ang       
                            Buckingham C     12.590000    eV*Ang^6  
--------------------------------------------------------------------------------
Ti   c Ti   c Lennard       Lennard-Jones A  1.0000000    eV*Ang^m  0.000 15.000
                            Lennard-Jones B  0.0000000    eV*Ang^n  
                            Exponent m        12          None
                            Exponent n         6          None
--------------------------------------------------------------------------------
O    c O    c Lennard       Lennard-Jones A  1.0000000    eV*Ang^m  0.000 15.000
                            Lennard-Jones B  0.0000000    eV*Ang^n  
                            Exponent m        12          None
                            Exponent n         6          None
--------------------------------------------------------------------------------
O    c Ti   c Lennard       Lennard-Jones A  1.0000000    eV*Ang^m  0.000 15.000
                            Lennard-Jones B  0.0000000    eV*Ang^n  
                            Exponent m        12          None
                            Exponent n         6          None
--------------------------------------------------------------------------------

********************************************************************************
*  Output for configuration   1                                                *
********************************************************************************


  Components of energy : 

--------------------------------------------------------------------------------
  Interatomic potentials     =         152.25429861 eV    
  Monopole - monopole (real) =          29.46391069 eV    
  Monopole - monopole (recip)=         -85.09872901 eV    
  Monopole - monopole (total)=         -55.63481832 eV    
--------------------------------------------------------------------------------
  Total lattice energy       =          96.61948029 eV    
--------------------------------------------------------------------------------
  Total lattice energy       =            9322.3029 kJ/(mole unit cells)
--------------------------------------------------------------------------------


  Number of variables =       39

  Maximum number of calculations  =          1000
  Maximum Hessian update interval =            10
  Maximum step size               =   1.000000000
  Maximum parameter tolerance     =   0.000010000
  Maximum function  tolerance     =   0.000010000
  Maximum gradient  tolerance     =   0.001000000
  Maximum gradient  component     =   0.010000000

  Symmetry not applied to optimisation

  Cell parameters to be optimised using strains

  Conjugate gradient optimiser to be used

  Lower half triangular hessian to be used

  Minimiser to switch to BFGS with exact hessian
  When gradient norm is less than     0.500000

  Start of bulk optimisation :

  Cycle:      0 Energy:        96.619480  Gnorm:     57.885660  CPU:    0.025
  Cycle:      1 Energy:       -66.994215  Gnorm:     20.915793  CPU:    0.072
  Cycle:      2 Energy:       -98.391390  Gnorm:      7.916868  CPU:    0.110
  Cycle:      3 Energy:      -114.933425  Gnorm:      4.607938  CPU:    0.152
  Cycle:      4 Energy:      -124.758239  Gnorm:      4.041074  CPU:    0.182
  Cycle:      5 Energy:      -130.339870  Gnorm:      2.667197  CPU:    0.212
  Cycle:      6 Energy:      -136.282598  Gnorm:      1.967437  CPU:    0.237
  Cycle:      7 Energy:      -139.288856  Gnorm:      2.459050  CPU:    0.256
  Cycle:      8 Energy:      -140.786469  Gnorm:      1.809095  CPU:    0.276
  Cycle:      9 Energy:      -142.659078  Gnorm:      0.992352  CPU:    0.299
  Cycle:     10 Energy:      -143.492490  Gnorm:      1.048799  CPU:    0.323
  Cycle:     11 Energy:      -144.946577  Gnorm:      1.357450  CPU:    0.347
  Cycle:     12 Energy:      -145.857874  Gnorm:      0.913820  CPU:    0.367
  Cycle:     13 Energy:      -146.443382  Gnorm:      0.568099  CPU:    0.392
  Cycle:     14 Energy:      -146.798948  Gnorm:      0.615607  CPU:    0.417
  Cycle:     15 Energy:      -147.200738  Gnorm:      0.663916  CPU:    0.443
  Cycle:     16 Energy:      -147.528441  Gnorm:      0.661268  CPU:    0.464
  Cycle:     17 Energy:      -148.018180  Gnorm:      0.929057  CPU:    0.490
  Cycle:     18 Energy:      -148.505141  Gnorm:      0.736503  CPU:    0.511
  Cycle:     19 Energy:      -148.998812  Gnorm:      0.784426  CPU:    0.537
  Cycle:     20 Energy:      -149.227291  Gnorm:      0.463934  CPU:    0.559
  ** Hessian calculated **
  Cycle:     21 Energy:      -149.826388  Gnorm:      0.581017  CPU:    0.622
  ** Hessian calculated **
  Cycle:     22 Energy:      -150.197573  Gnorm:      0.657185  CPU:    0.678
  Cycle:     23 Energy:      -150.588627  Gnorm:      0.529257  CPU:    0.709
  Cycle:     24 Energy:      -150.941805  Gnorm:      0.498097  CPU:    0.735
  Cycle:     25 Energy:      -151.214727  Gnorm:      0.522388  CPU:    0.757
  Cycle:     26 Energy:      -151.730322  Gnorm:      0.693519  CPU:    0.789
  Cycle:     27 Energy:      -152.357631  Gnorm:      0.574379  CPU:    0.822
  Cycle:     28 Energy:      -152.743572  Gnorm:      0.596605  CPU:    0.850
  Cycle:     29 Energy:      -153.025855  Gnorm:      0.363216  CPU:    0.877
  Cycle:     30 Energy:      -153.355605  Gnorm:      0.466793  CPU:    0.908
  Cycle:     31 Energy:      -153.675283  Gnorm:      0.482955  CPU:    0.935
  ** Hessian calculated **
  Cycle:     32 Energy:      -153.825762  Gnorm:      0.393935  CPU:    0.996
  ** Hessian calculated **
  Cycle:     33 Energy:      -154.029191  Gnorm:      0.289034  CPU:    1.051
  Cycle:     34 Energy:      -154.206413  Gnorm:      0.385265  CPU:    1.075
  Cycle:     35 Energy:      -154.479944  Gnorm:      0.532817  CPU:    1.102
  Cycle:     36 Energy:      -154.736367  Gnorm:      0.508813  CPU:    1.130
  Cycle:     37 Energy:      -155.026396  Gnorm:      0.453234  CPU:    1.153
  Cycle:     38 Energy:      -155.415375  Gnorm:      0.562093  CPU:    1.182
  Cycle:     39 Energy:      -155.637088  Gnorm:      0.505961  CPU:    1.207
  Cycle:     40 Energy:      -155.832825  Gnorm:      0.353341  CPU:    1.231
  Cycle:     41 Energy:      -155.985281  Gnorm:      0.389863  CPU:    1.262
  Cycle:     42 Energy:      -156.134703  Gnorm:      0.300673  CPU:    1.292
  ** Hessian calculated **
  Cycle:     43 Energy:      -156.441561  Gnorm:      0.217858  CPU:    1.359
  Cycle:     44 Energy:      -156.557785  Gnorm:      0.248656  CPU:    1.387
  Cycle:     45 Energy:      -156.652241  Gnorm:      0.182934  CPU:    1.409
  Cycle:     46 Energy:      -156.737072  Gnorm:      0.160042  CPU:    1.437
  Cycle:     47 Energy:      -156.768435  Gnorm:      0.154651  CPU:    1.459
  Cycle:     48 Energy:      -156.789836  Gnorm:      0.148311  CPU:    1.482
  Cycle:     49 Energy:      -156.802363  Gnorm:      0.146594  CPU:    1.505
  ** Hessian calculated **
  Cycle:     50 Energy:      -156.823509  Gnorm:      0.059567  CPU:    1.570
  Cycle:     51 Energy:      -156.845006  Gnorm:      0.115493  CPU:    1.608
  Cycle:     52 Energy:      -156.853333  Gnorm:      0.182389  CPU:    1.631
  Cycle:     53 Energy:      -156.886443  Gnorm:      0.275714  CPU:    1.663
  Cycle:     54 Energy:      -156.900079  Gnorm:      0.294694  CPU:    1.686
  ** Hessian calculated **
  Cycle:     55 Energy:      -157.084259  Gnorm:      0.207861  CPU:    1.756
  Cycle:     56 Energy:      -157.187774  Gnorm:      0.198384  CPU:    1.779
  Cycle:     57 Energy:      -157.374622  Gnorm:      0.242064  CPU:    1.807
  Cycle:     58 Energy:      -157.450673  Gnorm:      0.166165  CPU:    1.829
  Cycle:     59 Energy:      -157.483648  Gnorm:      0.076012  CPU:    1.853
  Cycle:     60 Energy:      -157.495175  Gnorm:      0.041461  CPU:    1.876
  Cycle:     61 Energy:      -157.499877  Gnorm:      0.033969  CPU:    1.899
  Cycle:     62 Energy:      -157.505517  Gnorm:      0.036566  CPU:    1.926
  Cycle:     63 Energy:      -157.508824  Gnorm:      0.026097  CPU:    1.949
  Cycle:     64 Energy:      -157.509884  Gnorm:      0.010667  CPU:    1.972
  ** Hessian calculated **
  Cycle:     65 Energy:      -157.510198  Gnorm:      0.000123  CPU:    2.041


  **** Optimisation achieved ****


  Final energy =    -157.51019814 eV      
  Final Gnorm  =       0.00000277

  Components of energy : 

--------------------------------------------------------------------------------
  Interatomic potentials     =          11.51086999 eV    
  Monopole - monopole (real) =         -63.24749388 eV    
  Monopole - monopole (recip)=        -105.77357426 eV    
  Monopole - monopole (total)=        -169.02106813 eV    
--------------------------------------------------------------------------------
  Total lattice energy       =        -157.51019814 eV    
--------------------------------------------------------------------------------
  Total lattice energy       =          -15197.3264 kJ/(mole unit cells)
--------------------------------------------------------------------------------

  Final fractional coordinates of atoms :

--------------------------------------------------------------------------------
   No.  Atomic        x           y          z          Radius
        Label       (Frac)      (Frac)     (Frac)       (Angs) 
--------------------------------------------------------------------------------
     1  Ti    c     0.171993    0.079737    0.042582    0.000000
     2  Ti    c     0.421993    0.557401    0.542582    0.000000
     3  Ti    c     0.921993    0.557401    0.542582    0.000000
     4  Ti    c     0.671993    0.079737    0.042582    0.000000
     5  O     c     0.171993    0.752485    0.697827    0.000000
     6  O     c     0.671993    0.752485    0.697827    0.000000
     7  O     c     0.171993    0.265150    0.536200    0.000000
     8  O     c     0.421993    0.884653    0.197827    0.000000
     9  O     c     0.671993    0.265150    0.536200    0.000000
    10  O     c     0.421993    0.371989    0.036200    0.000000
    11  O     c     0.921993    0.884654    0.197827    0.000000
    12  O     c     0.921993    0.371989    0.036200    0.000000
--------------------------------------------------------------------------------

  Final Cartesian lattice vectors (Angstroms) :

        6.483173    0.181449    0.518424
       -0.171872    4.833162    0.457745
       -0.273497   -0.345092    3.541006


  Final cell parameters and derivatives :

--------------------------------------------------------------------------------
       a            6.506398 Angstrom     dE/de1(xx)    -0.000049 eV/strain
       b            4.857832 Angstrom     dE/de2(yy)    -0.000009 eV/strain
       c            3.568279 Angstrom     dE/de3(zz)    -0.000018 eV/strain
       alpha       90.000000 Degrees      dE/de4(yz)    -0.000007 eV/strain
       beta        90.000000 Degrees      dE/de5(xz)     0.000007 eV/strain
       gamma       90.000000 Degrees      dE/de6(xy)    -0.000006 eV/strain
--------------------------------------------------------------------------------

  Primitive cell volume =           112.782547 Angs**3

  Density of cell =      4.704486 g/cm**3

  Non-primitive cell volume =           112.782547 Angs**3


  Final internal derivatives :

--------------------------------------------------------------------------------
   No.  Atomic          a             b             c           Radius
        Label          (eV)          (eV)          (eV)        (eV/Angs)
--------------------------------------------------------------------------------
      1 Ti    c       0.000000      0.000000      0.000000      0.000000
      2 Ti    c      -0.000036      0.000007      0.000003      0.000000
      3 Ti    c      -0.000002      0.000022      0.000000      0.000000
      4 Ti    c       0.000025     -0.000028     -0.000004      0.000000
      5 O     c       0.000018      0.000014      0.000005      0.000000
      6 O     c       0.000006     -0.000004     -0.000003      0.000000
      7 O     c       0.000027     -0.000001      0.000016      0.000000
      8 O     c       0.000024     -0.000033      0.000004      0.000000
      9 O     c       0.000018      0.000014      0.000002      0.000000
     10 O     c       0.000021      0.000011      0.000001      0.000000
     11 O     c      -0.000012     -0.000017     -0.000002      0.000000
     12 O     c      -0.000015      0.000019      0.000001      0.000000
--------------------------------------------------------------------------------
  Maximum abs         0.000036      0.000033      0.000016      0.000000
--------------------------------------------------------------------------------


  Time to end of optimisation =       2.0641 seconds


  Peak dynamic memory used =       1.84 MB 


  Timing analysis for GULP :

--------------------------------------------------------------------------------
  Task / Subroutine                                          Time (Seconds)
--------------------------------------------------------------------------------
  Calculation of reciprocal space energy and derivatives          0.0901
  Calculation of real space energy and derivatives                1.9499
  Calculation and manipulation of Hessian matrix                  0.0009
  Calculation of matrix inversion                                 0.0015
  Global summation overhead                                       0.0004
--------------------------------------------------------------------------------
  Total CPU time                                                  2.0642
--------------------------------------------------------------------------------


  Job Finished at 11:05.07 29th May        2024                               

