********************************************************************************
*                       GENERAL UTILITY LATTICE PROGRAM                        *
*                                 Julian Gale                                  *
*                       Curtin Institute for Computation                       *
*                    School of Molecular and Life Sciences                     *
*                    Curtin University, Western Australia                      *
********************************************************************************
* Version = 6.0.0 * Last modified =  12th July 2021                            *
********************************************************************************
*  optimise     - perform optimisation run                                     *
*  conp         - constant pressure calculation                                *
*  conjugate    - use conjugate gradients minimiser                            *
********************************************************************************

  Job Started  at 11:04.30 29th May        2024                               

  Number of CPUs =     1


  Total number of configurations input =      1

********************************************************************************
*  Input for Configuration =   1                                               *
********************************************************************************

  Formula = Ti4O8                                                       

  Number of irreducible atoms/shells =      12


  Total number atoms/shells =      12

  Dimensionality = 3               :  Bulk   



  Cartesian lattice vectors (Angstroms) :

        5.325885    0.000542   -0.993857
       -0.003263    5.348326    0.020331
       -1.677125   -0.000752    5.018138

  Cell parameters (Angstroms/Degrees):

  a =       5.4178    alpha =  89.7905
  b =       5.3484    beta  = 119.0506
  c =       5.2910    gamma =  90.0686

  Initial cell volume =         134.024851 Angs**3

  Temperature of configuration =   0.00     K 

  Pressure of configuration =         0.000 GPa 

  Fractional coordinates of asymmetric unit :

--------------------------------------------------------------------------------
   No.  Atomic       x           y          z         Charge      Occupancy
        Label      (Frac)      (Frac)     (Frac)        (e)         (Frac)  
--------------------------------------------------------------------------------
      1 Ti    c    0.043157    0.099619    0.676507     2.19600    1.000000    
      2 Ti    c    0.037626 *  0.099649 *  0.039045 *   2.19600    1.000000    
      3 Ti    c    0.920470 *  0.904172 *  0.286231 *   2.19600    1.000000    
      4 Ti    c    0.920474 *  0.269475 *  0.286244 *   2.19600    1.000000    
      5 O     c    0.398810 *  0.378613 *  0.854399 *  -1.09800    1.000000    
      6 O     c    0.287886 *  0.448710 *  0.163983 *  -1.09800    1.000000    
      7 O     c    0.040041 *  0.038153 *  0.992307 *  -1.09800    1.000000    
      8 O     c    0.040759 *  0.038132 *  0.357959 *  -1.09800    1.000000    
      9 O     c    0.685113 *  0.582784 *  0.286188 *  -1.09800    1.000000    
     10 O     c    0.685128 *  0.217486 *  0.286186 *  -1.09800    1.000000    
     11 O     c    0.168094 *  0.002693 *  0.920926 *  -1.09800    1.000000    
     12 O     c    0.168103 *  0.367989 *  0.920936 *  -1.09800    1.000000    
--------------------------------------------------------------------------------



********************************************************************************
*  General input information                                                   *
********************************************************************************

  Species output for all configurations : 

--------------------------------------------------------------------------------
  Species    Type    Atomic    Atomic    Charge       Radii (Angs)     Library
                     Number     Mass       (e)     Cova   Ionic  VDW   Symbol
--------------------------------------------------------------------------------
    Ti       Core       22      47.88   2.196000   1.470  0.000  2.190          
    O        Core        8      16.00  -1.098000   0.730  0.000  1.360          
--------------------------------------------------------------------------------


  Lattice summation method               =    Ewald          (3-D)
                                         =    Parry          (2-D)
                                         =    Saunders et al (1-D)
  Accuracy factor for lattice sums       =   12.000


  Analytic derivatives to be used

  Time limit = Infinity

  Maximum range for interatomic potentials =    100000.000000 Angstroms

  General interatomic potentials :

--------------------------------------------------------------------------------
Atom  Types   Potential      Parameter       Value         Units   Cutoffs(Ang)
  1     2                                                            Min /  Max 
--------------------------------------------------------------------------------
Ti   c Ti   c Buckingham    Buckingham A     31120.100    eV        0.000 15.000
                            Buckingham rho  0.15400000    Ang       
                            Buckingham C     5.2500000    eV*Ang^6  
--------------------------------------------------------------------------------
O    c O    c Buckingham    Buckingham A     11782.700    eV        0.000 15.000
                            Buckingham rho  0.23400000    Ang       
                            Buckingham C     30.220000    eV*Ang^6  
--------------------------------------------------------------------------------
O    c Ti   c Buckingham    Buckingham A     16957.500    eV        0.000 15.000
                            Buckingham rho  0.19400000    Ang       
                            Buckingham C     12.590000    eV*Ang^6  
--------------------------------------------------------------------------------
Ti   c Ti   c Lennard       Lennard-Jones A  1.0000000    eV*Ang^m  0.000 15.000
                            Lennard-Jones B  0.0000000    eV*Ang^n  
                            Exponent m        12          None
                            Exponent n         6          None
--------------------------------------------------------------------------------
O    c O    c Lennard       Lennard-Jones A  1.0000000    eV*Ang^m  0.000 15.000
                            Lennard-Jones B  0.0000000    eV*Ang^n  
                            Exponent m        12          None
                            Exponent n         6          None
--------------------------------------------------------------------------------
O    c Ti   c Lennard       Lennard-Jones A  1.0000000    eV*Ang^m  0.000 15.000
                            Lennard-Jones B  0.0000000    eV*Ang^n  
                            Exponent m        12          None
                            Exponent n         6          None
--------------------------------------------------------------------------------

********************************************************************************
*  Output for configuration   1                                                *
********************************************************************************


  Components of energy : 

--------------------------------------------------------------------------------
  Interatomic potentials     =       37012.42527027 eV    
  Monopole - monopole (real) =        -106.35249516 eV    
  Monopole - monopole (recip)=         -90.06395437 eV    
  Monopole - monopole (total)=        -196.41644954 eV    
--------------------------------------------------------------------------------
  Total lattice energy       =       36816.00882074 eV    
--------------------------------------------------------------------------------
  Total lattice energy       =         3552182.0670 kJ/(mole unit cells)
--------------------------------------------------------------------------------


  Number of variables =       39

  Maximum number of calculations  =          1000
  Maximum Hessian update interval =            10
  Maximum step size               =   1.000000000
  Maximum parameter tolerance     =   0.000010000
  Maximum function  tolerance     =   0.000010000
  Maximum gradient  tolerance     =   0.001000000
  Maximum gradient  component     =   0.010000000

  Symmetry not applied to optimisation

  Cell parameters to be optimised using strains

  Conjugate gradient optimiser to be used

  Lower half triangular hessian to be used

  Minimiser to switch to BFGS with exact hessian
  When gradient norm is less than     0.500000

  Start of bulk optimisation :

  Cycle:      0 Energy:     36816.008821  Gnorm: 212008.832934  CPU:    0.042
  Cycle:      1 Energy:       588.583130  Gnorm:    306.390434  CPU:    0.118
  Cycle:      2 Energy:       -20.223815  Gnorm:     39.560249  CPU:    0.171
  Cycle:      3 Energy:       -98.052655  Gnorm:     10.912227  CPU:    0.198
  Cycle:      4 Energy:      -113.247374  Gnorm:      6.176419  CPU:    0.234
  Cycle:      5 Energy:      -128.957632  Gnorm:      3.808191  CPU:    0.264
  Cycle:      6 Energy:      -131.778366  Gnorm:      2.649056  CPU:    0.284
  Cycle:      7 Energy:      -137.298419  Gnorm:      2.257852  CPU:    0.309
  Cycle:      8 Energy:      -140.236638  Gnorm:      1.782726  CPU:    0.331
  Cycle:      9 Energy:      -142.721437  Gnorm:      2.275742  CPU:    0.356
  Cycle:     10 Energy:      -143.931301  Gnorm:      1.127839  CPU:    0.376
  Cycle:     11 Energy:      -145.990313  Gnorm:      1.678352  CPU:    0.401
  Cycle:     12 Energy:      -147.047935  Gnorm:      1.509066  CPU:    0.422
  Cycle:     13 Energy:      -148.672642  Gnorm:      0.940624  CPU:    0.450
  Cycle:     14 Energy:      -149.214545  Gnorm:      0.926491  CPU:    0.472
  Cycle:     15 Energy:      -150.291420  Gnorm:      0.728188  CPU:    0.498
  Cycle:     16 Energy:      -150.562964  Gnorm:      0.544041  CPU:    0.520
  Cycle:     17 Energy:      -150.885104  Gnorm:      0.541019  CPU:    0.547
  Cycle:     18 Energy:      -151.071167  Gnorm:      0.419109  CPU:    0.572
  ** Hessian calculated **
  Cycle:     19 Energy:      -151.446024  Gnorm:      0.441617  CPU:    0.654
  ** Hessian calculated **
  Cycle:     20 Energy:      -152.431070  Gnorm:      0.652819  CPU:    0.749
  ** Hessian calculated **
  Cycle:     21 Energy:      -153.063029  Gnorm:      0.551148  CPU:    0.846
  ** Hessian calculated **
  Cycle:     22 Energy:      -153.395714  Gnorm:      0.372665  CPU:    0.931
  Cycle:     23 Energy:      -153.505516  Gnorm:      0.294149  CPU:    0.965
  Cycle:     24 Energy:      -153.670872  Gnorm:      0.372032  CPU:    1.007
  Cycle:     25 Energy:      -153.916275  Gnorm:      0.501700  CPU:    1.047
  Cycle:     26 Energy:      -154.101085  Gnorm:      0.369760  CPU:    1.082
  Cycle:     27 Energy:      -154.303225  Gnorm:      0.300455  CPU:    1.123
  Cycle:     28 Energy:      -154.429890  Gnorm:      0.334388  CPU:    1.163
  Cycle:     29 Energy:      -154.568289  Gnorm:      0.304640  CPU:    1.204
  Cycle:     30 Energy:      -154.671743  Gnorm:      0.349337  CPU:    1.247
  Cycle:     31 Energy:      -154.854777  Gnorm:      0.312024  CPU:    1.291
  ** Hessian calculated **
  Cycle:     32 Energy:      -155.188740  Gnorm:      0.302787  CPU:    1.393
  Cycle:     33 Energy:      -155.347033  Gnorm:      0.233258  CPU:    1.429
  Cycle:     34 Energy:      -155.395842  Gnorm:      0.187079  CPU:    1.461
  ** Hessian calculated **
  Cycle:     35 Energy:      -155.434572  Gnorm:      0.139099  CPU:    1.530
  Cycle:     36 Energy:      -155.459083  Gnorm:      0.129856  CPU:    1.569
  Cycle:     37 Energy:      -155.487773  Gnorm:      0.147473  CPU:    1.608
  Cycle:     38 Energy:      -155.518179  Gnorm:      0.118591  CPU:    1.648
  Cycle:     39 Energy:      -155.539451  Gnorm:      0.090446  CPU:    1.680
  Cycle:     40 Energy:      -155.554438  Gnorm:      0.062630  CPU:    1.719
  Cycle:     41 Energy:      -155.561403  Gnorm:      0.067558  CPU:    1.751
  Cycle:     42 Energy:      -155.567026  Gnorm:      0.055093  CPU:    1.783
  Cycle:     43 Energy:      -155.572606  Gnorm:      0.057726  CPU:    1.822
  Cycle:     44 Energy:      -155.584411  Gnorm:      0.079465  CPU:    1.861
  ** Hessian calculated **
  Cycle:     45 Energy:      -155.590293  Gnorm:      0.056906  CPU:    1.931
  Cycle:     46 Energy:      -155.593802  Gnorm:      0.046182  CPU:    1.971
  Cycle:     47 Energy:      -155.597389  Gnorm:      0.055623  CPU:    2.010
  Cycle:     48 Energy:      -155.602498  Gnorm:      0.053362  CPU:    2.049
  Cycle:     49 Energy:      -155.614823  Gnorm:      0.083562  CPU:    2.097
  Cycle:     50 Energy:      -155.638607  Gnorm:      0.130572  CPU:    2.143
  Cycle:     51 Energy:      -155.677395  Gnorm:      0.135521  CPU:    2.190
  Cycle:     52 Energy:      -155.738944  Gnorm:      0.154411  CPU:    2.236
  Cycle:     53 Energy:      -155.829961  Gnorm:      0.214131  CPU:    2.283
  Cycle:     54 Energy:      -155.867566  Gnorm:      0.223627  CPU:    2.315
  ** Hessian calculated **
  Cycle:     55 Energy:      -156.221155  Gnorm:      0.184731  CPU:    2.393
  Cycle:     56 Energy:      -156.314018  Gnorm:      0.120438  CPU:    2.428
  Cycle:     57 Energy:      -156.345534  Gnorm:      0.068164  CPU:    2.461
  Cycle:     58 Energy:      -156.350033  Gnorm:      0.043760  CPU:    2.501
  Cycle:     59 Energy:      -156.353500  Gnorm:      0.019863  CPU:    2.542
  Cycle:     60 Energy:      -156.354257  Gnorm:      0.008676  CPU:    2.577
  Cycle:     61 Energy:      -156.354375  Gnorm:      0.004212  CPU:    2.610
  Cycle:     62 Energy:      -156.354399  Gnorm:      0.001921  CPU:    2.643
  Cycle:     63 Energy:      -156.354402  Gnorm:      0.001300  CPU:    2.709
  Cycle:     64 Energy:      -156.354402  Gnorm:      0.001273  CPU:    2.749
  ** Hessian calculated **
  Cycle:     65 Energy:      -156.354404  Gnorm:      0.001327  CPU:    2.847
  Cycle:     66 Energy:      -156.354404  Gnorm:      0.001326  CPU:    2.895
  Cycle:     67 Energy:      -156.354418  Gnorm:      0.000524  CPU:    2.938


  **** Optimisation achieved ****


  Final energy =    -156.35441779 eV      
  Final Gnorm  =       0.00050404

  Components of energy : 

--------------------------------------------------------------------------------
  Interatomic potentials     =          12.14477558 eV    
  Monopole - monopole (real) =         -67.91156958 eV    
  Monopole - monopole (recip)=        -100.58762380 eV    
  Monopole - monopole (total)=        -168.49919337 eV    
--------------------------------------------------------------------------------
  Total lattice energy       =        -156.35441779 eV    
--------------------------------------------------------------------------------
  Total lattice energy       =          -15085.8112 kJ/(mole unit cells)
--------------------------------------------------------------------------------

  Final fractional coordinates of atoms :

--------------------------------------------------------------------------------
   No.  Atomic        x           y          z          Radius
        Label       (Frac)      (Frac)     (Frac)       (Angs) 
--------------------------------------------------------------------------------
     1  Ti    c     0.043157    0.099619    0.676507    0.000000
     2  Ti    c     0.393011    0.461399    0.273408    0.000000
     3  Ti    c     0.811261    0.870562    0.061293    0.000000
     4  Ti    c     0.138053    0.577238    0.547894    0.000000
     5  O     c     0.081175    0.641702    0.211766    0.000000
     6  O     c     0.589111    0.663547    0.668885    0.000000
     7  O     c     0.052075    0.119571    0.986328    0.000000
     8  O     c     0.117315    0.209630    0.408748    0.000000
     9  O     c     0.795874    0.769071    0.383248    0.000000
    10  O     c     0.744496    0.308994    0.465914    0.000000
    11  O     c     0.382592    0.930619    0.833614    0.000000
    12  O     c     0.345177    0.466871    0.906456    0.000000
--------------------------------------------------------------------------------

  Final Cartesian lattice vectors (Angstroms) :

        5.084392   -0.473589   -1.638040
       -0.965513    5.172901   -0.562920
       -2.132286   -0.146047    5.766313


  Final cell parameters and derivatives :

--------------------------------------------------------------------------------
       a            5.362696 Angstrom     dE/de1(xx)    -0.000627 eV/strain
       b            5.292258 Angstrom     dE/de2(yy)    -0.004477 eV/strain
       c            6.149662 Angstrom     dE/de3(zz)    -0.001198 eV/strain
       alpha       93.422131 Degrees      dE/de4(yz)    -0.000108 eV/strain
       beta       127.810439 Degrees      dE/de5(xz)     0.000949 eV/strain
       gamma      103.108813 Degrees      dE/de6(xy)    -0.001794 eV/strain
--------------------------------------------------------------------------------

  Primitive cell volume =           129.738259 Angs**3

  Density of cell =      4.089649 g/cm**3

  Non-primitive cell volume =           129.738259 Angs**3


  Final internal derivatives :

--------------------------------------------------------------------------------
   No.  Atomic          a             b             c           Radius
        Label          (eV)          (eV)          (eV)        (eV/Angs)
--------------------------------------------------------------------------------
      1 Ti    c       0.000000      0.000000      0.000000      0.000000
      2 Ti    c      -0.002196     -0.007640      0.006679      0.000000
      3 Ti    c       0.000095     -0.001472      0.002939      0.000000
      4 Ti    c       0.000589      0.004239     -0.002955      0.000000
      5 O     c      -0.003863      0.003124      0.004949      0.000000
      6 O     c      -0.002452      0.001469      0.002507      0.000000
      7 O     c       0.002471      0.000399     -0.003051      0.000000
      8 O     c       0.002702      0.002797     -0.002688      0.000000
      9 O     c       0.003878      0.002426     -0.004252      0.000000
     10 O     c      -0.000866      0.001952      0.001083      0.000000
     11 O     c       0.000084     -0.002048     -0.001949      0.000000
     12 O     c       0.002539      0.001413     -0.007212      0.000000
--------------------------------------------------------------------------------
  Maximum abs         0.003878      0.007640      0.007212      0.000000
--------------------------------------------------------------------------------


  Time to end of optimisation =       3.0397 seconds


  Peak dynamic memory used =       1.84 MB 


  Timing analysis for GULP :

--------------------------------------------------------------------------------
  Task / Subroutine                                          Time (Seconds)
--------------------------------------------------------------------------------
  Calculation of reciprocal space energy and derivatives          0.1075
  Calculation of real space energy and derivatives                2.9038
  Calculation and manipulation of Hessian matrix                  0.0011
  Calculation of matrix inversion                                 0.0018
  Global summation overhead                                       0.0005
--------------------------------------------------------------------------------
  Total CPU time                                                  3.0398
--------------------------------------------------------------------------------


  Job Finished at 11:04.33 29th May        2024                               

