********************************************************************************
*                       GENERAL UTILITY LATTICE PROGRAM                        *
*                                 Julian Gale                                  *
*                       Curtin Institute for Computation                       *
*                    School of Molecular and Life Sciences                     *
*                    Curtin University, Western Australia                      *
********************************************************************************
* Version = 6.0.0 * Last modified =  12th July 2021                            *
********************************************************************************
*  optimise     - perform optimisation run                                     *
*  conp         - constant pressure calculation                                *
*  conjugate    - use conjugate gradients minimiser                            *
********************************************************************************

  Job Started  at 11:04.33 29th May        2024                               

  Number of CPUs =     1


  Total number of configurations input =      1

********************************************************************************
*  Input for Configuration =   1                                               *
********************************************************************************

  Formula = Ti4O8                                                       

  Number of irreducible atoms/shells =      12


  Total number atoms/shells =      12

  Dimensionality = 3               :  Bulk   



  Cartesian lattice vectors (Angstroms) :

        3.824389    0.004192    0.617891
       -0.002401    6.867858    0.014955
       -0.681434   -0.005990    4.992613

  Cell parameters (Angstroms/Degrees):

  a =       3.8740    alpha =  89.9418
  b =       6.8679    beta  =  88.5945
  c =       5.0389    gamma =  89.9379

  Initial cell volume =         134.024851 Angs**3

  Temperature of configuration =   0.00     K 

  Pressure of configuration =         0.000 GPa 

  Fractional coordinates of asymmetric unit :

--------------------------------------------------------------------------------
   No.  Atomic       x           y          z         Charge      Occupancy
        Label      (Frac)      (Frac)     (Frac)        (e)         (Frac)  
--------------------------------------------------------------------------------
      1 Ti    c    0.872569    0.115675    0.369390     2.19600    1.000000    
      2 Ti    c    0.369049 *  0.356673 *  0.851395 *   2.19600    1.000000    
      3 Ti    c    0.872571 *  0.597667 *  0.369386 *   2.19600    1.000000    
      4 Ti    c    0.715206 *  0.900262 *  0.233196 *   2.19600    1.000000    
      5 O     c    0.557093 *  0.431489 *  0.369395 *  -1.09800    1.000000    
      6 O     c    0.190331 *  0.594602 *  0.851360 *  -1.09800    1.000000    
      7 O     c    0.087302 *  0.353605 *  0.369368 *  -1.09800    1.000000    
      8 O     c    0.684514 *  0.190495 *  0.851391 *  -1.09800    1.000000    
      9 O     c    0.190320 *  0.112612 *  0.851362 *  -1.09800    1.000000    
     10 O     c    0.963887 *  0.916480 *  0.516311 *  -1.09800    1.000000    
     11 O     c    0.233206 *  0.715185 *  0.233192 *  -1.09800    1.000000    
     12 O     c    0.466525 *  0.916477 *  0.914067 *  -1.09800    1.000000    
--------------------------------------------------------------------------------



********************************************************************************
*  General input information                                                   *
********************************************************************************

  Species output for all configurations : 

--------------------------------------------------------------------------------
  Species    Type    Atomic    Atomic    Charge       Radii (Angs)     Library
                     Number     Mass       (e)     Cova   Ionic  VDW   Symbol
--------------------------------------------------------------------------------
    Ti       Core       22      47.88   2.196000   1.470  0.000  2.190          
    O        Core        8      16.00  -1.098000   0.730  0.000  1.360          
--------------------------------------------------------------------------------


  Lattice summation method               =    Ewald          (3-D)
                                         =    Parry          (2-D)
                                         =    Saunders et al (1-D)
  Accuracy factor for lattice sums       =   12.000


  Analytic derivatives to be used

  Time limit = Infinity

  Maximum range for interatomic potentials =    100000.000000 Angstroms

  General interatomic potentials :

--------------------------------------------------------------------------------
Atom  Types   Potential      Parameter       Value         Units   Cutoffs(Ang)
  1     2                                                            Min /  Max 
--------------------------------------------------------------------------------
Ti   c Ti   c Buckingham    Buckingham A     31120.100    eV        0.000 15.000
                            Buckingham rho  0.15400000    Ang       
                            Buckingham C     5.2500000    eV*Ang^6  
--------------------------------------------------------------------------------
O    c O    c Buckingham    Buckingham A     11782.700    eV        0.000 15.000
                            Buckingham rho  0.23400000    Ang       
                            Buckingham C     30.220000    eV*Ang^6  
--------------------------------------------------------------------------------
O    c Ti   c Buckingham    Buckingham A     16957.500    eV        0.000 15.000
                            Buckingham rho  0.19400000    Ang       
                            Buckingham C     12.590000    eV*Ang^6  
--------------------------------------------------------------------------------
Ti   c Ti   c Lennard       Lennard-Jones A  1.0000000    eV*Ang^m  0.000 15.000
                            Lennard-Jones B  0.0000000    eV*Ang^n  
                            Exponent m        12          None
                            Exponent n         6          None
--------------------------------------------------------------------------------
O    c O    c Lennard       Lennard-Jones A  1.0000000    eV*Ang^m  0.000 15.000
                            Lennard-Jones B  0.0000000    eV*Ang^n  
                            Exponent m        12          None
                            Exponent n         6          None
--------------------------------------------------------------------------------
O    c Ti   c Lennard       Lennard-Jones A  1.0000000    eV*Ang^m  0.000 15.000
                            Lennard-Jones B  0.0000000    eV*Ang^n  
                            Exponent m        12          None
                            Exponent n         6          None
--------------------------------------------------------------------------------

********************************************************************************
*  Output for configuration   1                                                *
********************************************************************************


  Components of energy : 

--------------------------------------------------------------------------------
  Interatomic potentials     =          32.85866006 eV    
  Monopole - monopole (real) =         -40.54571945 eV    
  Monopole - monopole (recip)=         -95.67913636 eV    
  Monopole - monopole (total)=        -136.22485582 eV    
--------------------------------------------------------------------------------
  Total lattice energy       =        -103.36619576 eV    
--------------------------------------------------------------------------------
  Total lattice energy       =           -9973.2578 kJ/(mole unit cells)
--------------------------------------------------------------------------------


  Number of variables =       39

  Maximum number of calculations  =          1000
  Maximum Hessian update interval =            10
  Maximum step size               =   1.000000000
  Maximum parameter tolerance     =   0.000010000
  Maximum function  tolerance     =   0.000010000
  Maximum gradient  tolerance     =   0.001000000
  Maximum gradient  component     =   0.010000000

  Symmetry not applied to optimisation

  Cell parameters to be optimised using strains

  Conjugate gradient optimiser to be used

  Lower half triangular hessian to be used

  Minimiser to switch to BFGS with exact hessian
  When gradient norm is less than     0.500000

  Start of bulk optimisation :

  Cycle:      0 Energy:      -103.366196  Gnorm:      8.612527  CPU:    0.021
  Cycle:      1 Energy:      -119.166763  Gnorm:      3.875420  CPU:    0.041
  Cycle:      2 Energy:      -126.242031  Gnorm:      4.853977  CPU:    0.064
  Cycle:      3 Energy:      -131.678573  Gnorm:      2.428824  CPU:    0.081
  Cycle:      4 Energy:      -137.927432  Gnorm:      2.511464  CPU:    0.102
  Cycle:      5 Energy:      -139.611371  Gnorm:      1.703369  CPU:    0.123
  Cycle:      6 Energy:      -141.941153  Gnorm:      2.081401  CPU:    0.143
  Cycle:      7 Energy:      -142.884422  Gnorm:      1.366882  CPU:    0.160
  Cycle:      8 Energy:      -144.013054  Gnorm:      1.318395  CPU:    0.180
  Cycle:      9 Energy:      -144.688661  Gnorm:      1.725836  CPU:    0.197
  Cycle:     10 Energy:      -145.217300  Gnorm:      0.753259  CPU:    0.215
  Cycle:     11 Energy:      -145.703726  Gnorm:      0.893995  CPU:    0.236
  Cycle:     12 Energy:      -146.853019  Gnorm:      2.152458  CPU:    0.257
  Cycle:     13 Energy:      -148.351102  Gnorm:      2.145422  CPU:    0.275
  Cycle:     14 Energy:      -149.279703  Gnorm:      1.115168  CPU:    0.297
  Cycle:     15 Energy:      -149.902314  Gnorm:      1.073528  CPU:    0.320
  Cycle:     16 Energy:      -150.467150  Gnorm:      0.985158  CPU:    0.342
  Cycle:     17 Energy:      -150.941671  Gnorm:      0.604318  CPU:    0.364
  Cycle:     18 Energy:      -151.219470  Gnorm:      0.822057  CPU:    0.387
  Cycle:     19 Energy:      -151.502260  Gnorm:      0.760603  CPU:    0.405
  Cycle:     20 Energy:      -151.733949  Gnorm:      0.759897  CPU:    0.423
  Cycle:     21 Energy:      -151.956026  Gnorm:      0.530738  CPU:    0.446
  Cycle:     22 Energy:      -152.315089  Gnorm:      0.901483  CPU:    0.468
  Cycle:     23 Energy:      -152.593071  Gnorm:      0.989667  CPU:    0.487
  Cycle:     24 Energy:      -153.115026  Gnorm:      0.750680  CPU:    0.507
  Cycle:     25 Energy:      -153.314513  Gnorm:      0.704032  CPU:    0.529
  Cycle:     26 Energy:      -153.677647  Gnorm:      0.667991  CPU:    0.556
  Cycle:     27 Energy:      -153.818737  Gnorm:      0.638448  CPU:    0.578
  Cycle:     28 Energy:      -153.970400  Gnorm:      0.432511  CPU:    0.606
  ** Hessian calculated **
  Cycle:     29 Energy:      -154.096133  Gnorm:      0.239229  CPU:    0.663
  Cycle:     30 Energy:      -154.151249  Gnorm:      0.203728  CPU:    0.686
  Cycle:     31 Energy:      -154.187780  Gnorm:      0.170793  CPU:    0.708
  Cycle:     32 Energy:      -154.227280  Gnorm:      0.167298  CPU:    0.736
  Cycle:     33 Energy:      -154.270998  Gnorm:      0.201762  CPU:    0.761
  Cycle:     34 Energy:      -154.309950  Gnorm:      0.118459  CPU:    0.781
  Cycle:     35 Energy:      -154.346377  Gnorm:      0.208596  CPU:    0.805
  Cycle:     36 Energy:      -154.381937  Gnorm:      0.220765  CPU:    0.830
  Cycle:     37 Energy:      -154.428438  Gnorm:      0.240052  CPU:    0.855
  Cycle:     38 Energy:      -154.498620  Gnorm:      0.464692  CPU:    0.882
  ** Hessian calculated **
  Cycle:     39 Energy:      -154.582034  Gnorm:      0.336685  CPU:    0.939
  Cycle:     40 Energy:      -154.787127  Gnorm:      0.690314  CPU:    0.964
  Cycle:     41 Energy:      -155.133941  Gnorm:      0.694782  CPU:    0.989
  Cycle:     42 Energy:      -155.451394  Gnorm:      0.801614  CPU:    1.010
  Cycle:     43 Energy:      -155.865773  Gnorm:      0.537585  CPU:    1.033
  Cycle:     44 Energy:      -156.207928  Gnorm:      0.616021  CPU:    1.062
  Cycle:     45 Energy:      -156.565007  Gnorm:      0.543150  CPU:    1.085
  Cycle:     46 Energy:      -156.974757  Gnorm:      0.555064  CPU:    1.111
  Cycle:     47 Energy:      -157.420113  Gnorm:      0.934445  CPU:    1.137
  Cycle:     48 Energy:      -157.867472  Gnorm:      0.759424  CPU:    1.158
  ** Hessian calculated **
  Cycle:     49 Energy:      -158.563428  Gnorm:      0.566311  CPU:    1.218
  Cycle:     50 Energy:      -158.800312  Gnorm:      0.235706  CPU:    1.240
  Cycle:     51 Energy:      -158.898216  Gnorm:      0.224242  CPU:    1.261
  Cycle:     52 Energy:      -158.990671  Gnorm:      0.208830  CPU:    1.288
  Cycle:     53 Energy:      -159.054729  Gnorm:      0.208501  CPU:    1.309
  Cycle:     54 Energy:      -159.115491  Gnorm:      0.186816  CPU:    1.331
  Cycle:     55 Energy:      -159.155707  Gnorm:      0.182835  CPU:    1.353
  Cycle:     56 Energy:      -159.185244  Gnorm:      0.082321  CPU:    1.374
  Cycle:     57 Energy:      -159.194572  Gnorm:      0.063852  CPU:    1.396
  Cycle:     58 Energy:      -159.197053  Gnorm:      0.031291  CPU:    1.418
  ** Hessian calculated **
  Cycle:     59 Energy:      -159.201428  Gnorm:      0.000996  CPU:    1.483


  **** Optimisation achieved ****


  Final energy =    -159.20142964 eV      
  Final Gnorm  =       0.00001816

  Components of energy : 

--------------------------------------------------------------------------------
  Interatomic potentials     =          12.37898570 eV    
  Monopole - monopole (real) =         -68.43757694 eV    
  Monopole - monopole (recip)=        -103.14283841 eV    
  Monopole - monopole (total)=        -171.58041534 eV    
--------------------------------------------------------------------------------
  Total lattice energy       =        -159.20142964 eV    
--------------------------------------------------------------------------------
  Total lattice energy       =          -15360.5043 kJ/(mole unit cells)
--------------------------------------------------------------------------------

  Final fractional coordinates of atoms :

--------------------------------------------------------------------------------
   No.  Atomic        x           y          z          Radius
        Label       (Frac)      (Frac)     (Frac)       (Angs) 
--------------------------------------------------------------------------------
     1  Ti    c     0.872569    0.115675    0.369390    0.000000
     2  Ti    c     0.372568    0.365675    0.869390    0.000000
     3  Ti    c     0.872568    0.615675    0.369390    0.000000
     4  Ti    c     0.372567    0.865675    0.869389    0.000000
     5  O     c     0.569282    0.464033    0.369390    0.000000
     6  O     c     0.069282    0.517317    0.869390    0.000000
     7  O     c     0.175855    0.267317    0.369390    0.000000
     8  O     c     0.675855    0.214033    0.869391    0.000000
     9  O     c     0.069282    0.017317    0.869388    0.000000
    10  O     c     0.569282    0.964033    0.369389    0.000000
    11  O     c     0.175853    0.767317    0.369389    0.000000
    12  O     c     0.675853    0.714033    0.869390    0.000000
--------------------------------------------------------------------------------

  Final Cartesian lattice vectors (Angstroms) :

        4.446291   -0.014882    0.645734
        0.024723    8.985817    0.036913
       -0.432439   -0.011039    2.977358


  Final cell parameters and derivatives :

--------------------------------------------------------------------------------
       a            4.492961 Angstrom     dE/de1(xx)     0.000119 eV/strain
       b            8.985927 Angstrom     dE/de2(yy)     0.000199 eV/strain
       c            3.008619 Angstrom     dE/de3(zz)    -0.000187 eV/strain
       alpha       89.999963 Degrees      dE/de4(yz)     0.000127 eV/strain
       beta        90.000000 Degrees      dE/de5(xz)     0.000014 eV/strain
       gamma       89.999949 Degrees      dE/de6(xy)     0.000138 eV/strain
--------------------------------------------------------------------------------

  Primitive cell volume =           121.468238 Angs**3

  Density of cell =      4.368087 g/cm**3

  Non-primitive cell volume =           121.468238 Angs**3


  Final internal derivatives :

--------------------------------------------------------------------------------
   No.  Atomic          a             b             c           Radius
        Label          (eV)          (eV)          (eV)        (eV/Angs)
--------------------------------------------------------------------------------
      1 Ti    c       0.000000      0.000000      0.000000      0.000000
      2 Ti    c      -0.000017      0.000067      0.000011      0.000000
      3 Ti    c      -0.000046      0.000265     -0.000012      0.000000
      4 Ti    c      -0.000181      0.000111     -0.000054      0.000000
      5 O     c       0.000000      0.000011      0.000011      0.000000
      6 O     c       0.000106     -0.000233      0.000030      0.000000
      7 O     c      -0.000000     -0.000158     -0.000014      0.000000
      8 O     c       0.000080      0.000118      0.000056      0.000000
      9 O     c      -0.000048      0.000092     -0.000208      0.000000
     10 O     c      -0.000048     -0.000154      0.000021      0.000000
     11 O     c       0.000046     -0.000037     -0.000007      0.000000
     12 O     c      -0.000081      0.000216      0.000012      0.000000
--------------------------------------------------------------------------------
  Maximum abs         0.000181      0.000265      0.000208      0.000000
--------------------------------------------------------------------------------


  Time to end of optimisation =       1.5050 seconds


  Peak dynamic memory used =       1.84 MB 


  Timing analysis for GULP :

--------------------------------------------------------------------------------
  Task / Subroutine                                          Time (Seconds)
--------------------------------------------------------------------------------
  Calculation of reciprocal space energy and derivatives          0.0763
  Calculation of real space energy and derivatives                1.4080
  Calculation and manipulation of Hessian matrix                  0.0005
  Calculation of matrix inversion                                 0.0008
  Global summation overhead                                       0.0004
--------------------------------------------------------------------------------
  Total CPU time                                                  1.5051
--------------------------------------------------------------------------------


  Job Finished at 11:04.34 29th May        2024                               

