********************************************************************************
*                       GENERAL UTILITY LATTICE PROGRAM                        *
*                                 Julian Gale                                  *
*                       Curtin Institute for Computation                       *
*                    School of Molecular and Life Sciences                     *
*                    Curtin University, Western Australia                      *
********************************************************************************
* Version = 6.0.0 * Last modified =  12th July 2021                            *
********************************************************************************
*  optimise     - perform optimisation run                                     *
*  conp         - constant pressure calculation                                *
*  conjugate    - use conjugate gradients minimiser                            *
********************************************************************************

  Job Started  at 11:06.10 29th May        2024                               

  Number of CPUs =     1


  Total number of configurations input =      1

********************************************************************************
*  Input for Configuration =   1                                               *
********************************************************************************

  Formula = Ti4O8                                                       

  Number of irreducible atoms/shells =      12


  Total number atoms/shells =      12

  Dimensionality = 3               :  Bulk   



  Cartesian lattice vectors (Angstroms) :

        4.944443    3.392051    3.333983
        4.168990    4.013220   -6.452121
       -1.298647    0.921025    8.075216

  Cell parameters (Angstroms/Degrees):

  a =       6.8607    alpha = 138.9791
  b =       8.6670    beta  =  65.2669
  c =       8.2307    gamma =  77.6526

  Initial cell volume =         134.024851 Angs**3

  Temperature of configuration =   0.00     K 

  Pressure of configuration =         0.000 GPa 

  Fractional coordinates of asymmetric unit :

--------------------------------------------------------------------------------
   No.  Atomic       x           y          z         Charge      Occupancy
        Label      (Frac)      (Frac)     (Frac)        (e)         (Frac)  
--------------------------------------------------------------------------------
      1 Ti    c    0.401593    0.401593    0.000000     2.19600    1.000000    
      2 Ti    c    0.075457 *  0.588767 *  0.098942 *   2.19600    1.000000    
      3 Ti    c    0.739807 *  0.195616 *  0.658385 *   2.19600    1.000000    
      4 Ti    c    0.422211 *  0.756128 *  0.669030 *   2.19600    1.000000    
      5 O     c    0.446031 *  0.639468 *  0.152900 *  -1.09800    1.000000    
      6 O     c    0.348081 *  0.184146 *  0.734740 *  -1.09800    1.000000    
      7 O     c    0.374720 *  0.441282 *  0.464520 *  -1.09800    1.000000    
      8 O     c    0.752539 *  0.428521 *  0.057861 *  -1.09800    1.000000    
      9 O     c    0.138083 *  0.553817 *  0.404969 *  -1.09800    1.000000    
     10 O     c    0.656071 *  0.239957 *  0.381021 *  -1.09800    1.000000    
     11 O     c    0.162790 *  0.798888 *  0.208001 *  -1.09800    1.000000    
     12 O     c    0.648105 *  0.794972 *  0.552112 *  -1.09800    1.000000    
--------------------------------------------------------------------------------



********************************************************************************
*  General input information                                                   *
********************************************************************************

  Species output for all configurations : 

--------------------------------------------------------------------------------
  Species    Type    Atomic    Atomic    Charge       Radii (Angs)     Library
                     Number     Mass       (e)     Cova   Ionic  VDW   Symbol
--------------------------------------------------------------------------------
    Ti       Core       22      47.88   2.196000   1.470  0.000  2.190          
    O        Core        8      16.00  -1.098000   0.730  0.000  1.360          
--------------------------------------------------------------------------------


  Lattice summation method               =    Ewald          (3-D)
                                         =    Parry          (2-D)
                                         =    Saunders et al (1-D)
  Accuracy factor for lattice sums       =   12.000


  Analytic derivatives to be used

  Time limit = Infinity

  Maximum range for interatomic potentials =    100000.000000 Angstroms

  General interatomic potentials :

--------------------------------------------------------------------------------
Atom  Types   Potential      Parameter       Value         Units   Cutoffs(Ang)
  1     2                                                            Min /  Max 
--------------------------------------------------------------------------------
Ti   c Ti   c Buckingham    Buckingham A     31120.100    eV        0.000 15.000
                            Buckingham rho  0.15400000    Ang       
                            Buckingham C     5.2500000    eV*Ang^6  
--------------------------------------------------------------------------------
O    c O    c Buckingham    Buckingham A     11782.700    eV        0.000 15.000
                            Buckingham rho  0.23400000    Ang       
                            Buckingham C     30.220000    eV*Ang^6  
--------------------------------------------------------------------------------
O    c Ti   c Buckingham    Buckingham A     16957.500    eV        0.000 15.000
                            Buckingham rho  0.19400000    Ang       
                            Buckingham C     12.590000    eV*Ang^6  
--------------------------------------------------------------------------------
Ti   c Ti   c Lennard       Lennard-Jones A  1.0000000    eV*Ang^m  0.000 15.000
                            Lennard-Jones B  0.0000000    eV*Ang^n  
                            Exponent m        12          None
                            Exponent n         6          None
--------------------------------------------------------------------------------
O    c O    c Lennard       Lennard-Jones A  1.0000000    eV*Ang^m  0.000 15.000
                            Lennard-Jones B  0.0000000    eV*Ang^n  
                            Exponent m        12          None
                            Exponent n         6          None
--------------------------------------------------------------------------------
O    c Ti   c Lennard       Lennard-Jones A  1.0000000    eV*Ang^m  0.000 15.000
                            Lennard-Jones B  0.0000000    eV*Ang^n  
                            Exponent m        12          None
                            Exponent n         6          None
--------------------------------------------------------------------------------

********************************************************************************
*  Output for configuration   1                                                *
********************************************************************************


  Components of energy : 

--------------------------------------------------------------------------------
  Interatomic potentials     =         123.09988914 eV    
  Monopole - monopole (real) =         -27.14393181 eV    
  Monopole - monopole (recip)=         -85.78565298 eV    
  Monopole - monopole (total)=        -112.92958479 eV    
--------------------------------------------------------------------------------
  Total lattice energy       =          10.17030436 eV    
--------------------------------------------------------------------------------
  Total lattice energy       =             981.2789 kJ/(mole unit cells)
--------------------------------------------------------------------------------


  Number of variables =       39

  Maximum number of calculations  =          1000
  Maximum Hessian update interval =            10
  Maximum step size               =   1.000000000
  Maximum parameter tolerance     =   0.000010000
  Maximum function  tolerance     =   0.000010000
  Maximum gradient  tolerance     =   0.001000000
  Maximum gradient  component     =   0.010000000

  Symmetry not applied to optimisation

  Cell parameters to be optimised using strains

  Conjugate gradient optimiser to be used

  Lower half triangular hessian to be used

  Minimiser to switch to BFGS with exact hessian
  When gradient norm is less than     0.500000

  Start of bulk optimisation :

  Cycle:      0 Energy:        10.170304  Gnorm:     44.196456  CPU:    0.038
  Cycle:      1 Energy:       -53.889579  Gnorm:     22.752895  CPU:    0.106
  Cycle:      2 Energy:       -97.547436  Gnorm:     16.510655  CPU:    0.172
  Cycle:      3 Energy:      -108.750774  Gnorm:      8.622271  CPU:    0.238
  Cycle:      4 Energy:      -122.940726  Gnorm:      4.234267  CPU:    0.302
  Cycle:      5 Energy:      -127.795292  Gnorm:      3.063703  CPU:    0.366
  Cycle:      6 Energy:      -131.474190  Gnorm:      3.790428  CPU:    0.429
  Cycle:      7 Energy:      -134.326647  Gnorm:      3.015340  CPU:    0.478
  Cycle:      8 Energy:      -137.203961  Gnorm:      2.522167  CPU:    0.539
  Cycle:      9 Energy:      -139.523459  Gnorm:      2.750812  CPU:    0.590
  Cycle:     10 Energy:      -141.451846  Gnorm:      1.823979  CPU:    0.625
  Cycle:     11 Energy:      -142.739958  Gnorm:      1.944649  CPU:    0.670
  Cycle:     12 Energy:      -143.645033  Gnorm:      2.293597  CPU:    0.706
  Cycle:     13 Energy:      -144.517082  Gnorm:      1.225775  CPU:    0.743
  Cycle:     14 Energy:      -144.997406  Gnorm:      1.567316  CPU:    0.788
  Cycle:     15 Energy:      -145.692169  Gnorm:      1.274045  CPU:    0.835
  Cycle:     16 Energy:      -146.569528  Gnorm:      1.321910  CPU:    0.882
  Cycle:     17 Energy:      -148.035210  Gnorm:      2.053879  CPU:    0.932
  Cycle:     18 Energy:      -148.882614  Gnorm:      1.989104  CPU:    0.974
  Cycle:     19 Energy:      -150.417821  Gnorm:      1.348635  CPU:    1.027
  Cycle:     20 Energy:      -150.819727  Gnorm:      0.827161  CPU:    1.070
  Cycle:     21 Energy:      -151.313887  Gnorm:      0.754126  CPU:    1.122
  Cycle:     22 Energy:      -151.579844  Gnorm:      0.726854  CPU:    1.165
  Cycle:     23 Energy:      -151.930208  Gnorm:      0.772343  CPU:    1.217
  Cycle:     24 Energy:      -152.148011  Gnorm:      0.747504  CPU:    1.260
  Cycle:     25 Energy:      -152.451818  Gnorm:      0.880556  CPU:    1.323
  Cycle:     26 Energy:      -152.741613  Gnorm:      0.857654  CPU:    1.380
  Cycle:     27 Energy:      -153.079843  Gnorm:      0.809208  CPU:    1.451
  Cycle:     28 Energy:      -153.322416  Gnorm:      0.791203  CPU:    1.508
  Cycle:     29 Energy:      -153.655458  Gnorm:      0.788225  CPU:    1.578
  Cycle:     30 Energy:      -153.787747  Gnorm:      0.400443  CPU:    1.634
  ** Hessian calculated **
  Cycle:     31 Energy:      -154.248682  Gnorm:      0.345508  CPU:    1.792
  ** Hessian calculated **
  Cycle:     32 Energy:      -154.422683  Gnorm:      0.327554  CPU:    1.938
  ** Hessian calculated **
  Cycle:     33 Energy:      -154.479763  Gnorm:      0.275028  CPU:    2.042
  Cycle:     34 Energy:      -154.530291  Gnorm:      0.260209  CPU:    2.112
  Cycle:     35 Energy:      -154.576620  Gnorm:      0.276302  CPU:    2.168
  Cycle:     36 Energy:      -154.630459  Gnorm:      0.244340  CPU:    2.239
  Cycle:     37 Energy:      -154.673899  Gnorm:      0.235172  CPU:    2.309
  Cycle:     38 Energy:      -154.709241  Gnorm:      0.143634  CPU:    2.379
  Cycle:     39 Energy:      -154.726651  Gnorm:      0.148302  CPU:    2.436
  Cycle:     40 Energy:      -154.750685  Gnorm:      0.126336  CPU:    2.505
  Cycle:     41 Energy:      -154.765433  Gnorm:      0.100386  CPU:    2.562
  Cycle:     42 Energy:      -154.774941  Gnorm:      0.137064  CPU:    2.618
  ** Hessian calculated **
  Cycle:     43 Energy:      -154.802114  Gnorm:      0.125920  CPU:    2.776
  ** Hessian calculated **
  Cycle:     44 Energy:      -154.808680  Gnorm:      0.095206  CPU:    2.880
  Cycle:     45 Energy:      -154.819234  Gnorm:      0.110955  CPU:    2.951
  Cycle:     46 Energy:      -154.834298  Gnorm:      0.162100  CPU:    3.022
  Cycle:     47 Energy:      -154.848364  Gnorm:      0.112257  CPU:    3.093
  Cycle:     48 Energy:      -154.861393  Gnorm:      0.120627  CPU:    3.164
  Cycle:     49 Energy:      -154.880282  Gnorm:      0.127822  CPU:    3.234
  Cycle:     50 Energy:      -154.895618  Gnorm:      0.141895  CPU:    3.292
  Cycle:     51 Energy:      -154.919303  Gnorm:      0.120760  CPU:    3.363
  Cycle:     52 Energy:      -154.940479  Gnorm:      0.188183  CPU:    3.434
  Cycle:     53 Energy:      -154.969648  Gnorm:      0.247417  CPU:    3.505
  ** Hessian calculated **
  Cycle:     54 Energy:      -154.995373  Gnorm:      0.181983  CPU:    3.611
  Cycle:     55 Energy:      -155.015191  Gnorm:      0.139002  CPU:    3.682
  Cycle:     56 Energy:      -155.033058  Gnorm:      0.155369  CPU:    3.752
  Cycle:     57 Energy:      -155.048866  Gnorm:      0.129656  CPU:    3.823
  Cycle:     58 Energy:      -155.066435  Gnorm:      0.165251  CPU:    3.893
  Cycle:     59 Energy:      -155.082558  Gnorm:      0.127362  CPU:    3.964
  Cycle:     60 Energy:      -155.101240  Gnorm:      0.141683  CPU:    4.035
  Cycle:     61 Energy:      -155.125882  Gnorm:      0.135043  CPU:    4.106
  Cycle:     62 Energy:      -155.139900  Gnorm:      0.164405  CPU:    4.163
  Cycle:     63 Energy:      -155.163747  Gnorm:      0.172423  CPU:    4.234
  ** Hessian calculated **
  Cycle:     64 Energy:      -155.184011  Gnorm:      0.170705  CPU:    4.339
  Cycle:     65 Energy:      -155.204519  Gnorm:      0.170402  CPU:    4.409
  Cycle:     66 Energy:      -155.236170  Gnorm:      0.224784  CPU:    4.480
  Cycle:     67 Energy:      -155.274000  Gnorm:      0.199944  CPU:    4.550
  Cycle:     68 Energy:      -155.314623  Gnorm:      0.289727  CPU:    4.621
  Cycle:     69 Energy:      -155.383809  Gnorm:      0.280112  CPU:    4.692
  Cycle:     70 Energy:      -155.466294  Gnorm:      0.475248  CPU:    4.763
  Cycle:     71 Energy:      -155.649688  Gnorm:      0.422286  CPU:    4.834
  Cycle:     72 Energy:      -155.887212  Gnorm:      0.608644  CPU:    4.892
  Cycle:     73 Energy:      -156.185196  Gnorm:      0.648110  CPU:    4.964
  ** Hessian calculated **
  Cycle:     74 Energy:      -157.028749  Gnorm:      0.532456  CPU:    5.086
  Cycle:     75 Energy:      -157.256489  Gnorm:      0.274661  CPU:    5.146
  ** Hessian calculated **
  Cycle:     76 Energy:      -157.299165  Gnorm:      0.202388  CPU:    5.256
  Cycle:     77 Energy:      -157.317194  Gnorm:      0.142172  CPU:    5.314
  Cycle:     78 Energy:      -157.336572  Gnorm:      0.139652  CPU:    5.387
  Cycle:     79 Energy:      -157.349722  Gnorm:      0.142268  CPU:    5.446
  Cycle:     80 Energy:      -157.364086  Gnorm:      0.120977  CPU:    5.520
  Cycle:     81 Energy:      -157.374187  Gnorm:      0.090148  CPU:    5.579
  Cycle:     82 Energy:      -157.383703  Gnorm:      0.127960  CPU:    5.652
  Cycle:     83 Energy:      -157.390279  Gnorm:      0.090562  CPU:    5.712
  Cycle:     84 Energy:      -157.395985  Gnorm:      0.069062  CPU:    5.785
  Cycle:     85 Energy:      -157.399452  Gnorm:      0.072738  CPU:    5.843
  ** Hessian calculated **
  Cycle:     86 Energy:      -157.434687  Gnorm:      0.070828  CPU:    6.010
  Cycle:     87 Energy:      -157.473679  Gnorm:      0.066146  CPU:    6.098
  Cycle:     88 Energy:      -157.500465  Gnorm:      0.050524  CPU:    6.172
  Cycle:     89 Energy:      -157.509951  Gnorm:      0.013809  CPU:    6.232
  Cycle:     90 Energy:      -157.510128  Gnorm:      0.004693  CPU:    6.291
  Cycle:     91 Energy:      -157.510176  Gnorm:      0.002228  CPU:    6.351
  Cycle:     92 Energy:      -157.510181  Gnorm:      0.000763  CPU:    6.425


  **** Optimisation achieved ****


  Final energy =    -157.51018122 eV      
  Final Gnorm  =       0.00032460

  Components of energy : 

--------------------------------------------------------------------------------
  Interatomic potentials     =          11.51162952 eV    
  Monopole - monopole (real) =         -63.24801003 eV    
  Monopole - monopole (recip)=        -105.77380070 eV    
  Monopole - monopole (total)=        -169.02181073 eV    
--------------------------------------------------------------------------------
  Total lattice energy       =        -157.51018122 eV    
--------------------------------------------------------------------------------
  Total lattice energy       =          -15197.3247 kJ/(mole unit cells)
--------------------------------------------------------------------------------

  Final fractional coordinates of atoms :

--------------------------------------------------------------------------------
   No.  Atomic        x           y          z          Radius
        Label       (Frac)      (Frac)     (Frac)       (Angs) 
--------------------------------------------------------------------------------
     1  Ti    c     0.401593    0.401593    0.000000    0.000000
     2  Ti    c     0.151604    0.379258    0.727660    0.000000
     3  Ti    c     0.901588    0.401599    0.500007    0.000000
     4  Ti    c     0.651604    0.379258    0.227660    0.000000
     5  O     c     0.648431    0.586979    0.938566    0.000000
     6  O     c     0.229211    0.074333    0.845125    0.000000
     7  O     c     0.398441    0.193840    0.295425    0.000000
     8  O     c     0.898436    0.193844    0.795428    0.000000
     9  O     c     0.148428    0.586980    0.438569    0.000000
    10  O     c     0.729211    0.074333    0.345124    0.000000
    11  O     c     0.979208    0.706524    0.227317    0.000000
    12  O     c     0.479206    0.706525    0.727319    0.000000
--------------------------------------------------------------------------------

  Final Cartesian lattice vectors (Angstroms) :

        3.577516    2.367560    3.972327
        2.894955    2.587799   -6.814174
       -1.419358    1.496113    8.992106


  Final cell parameters and derivatives :

--------------------------------------------------------------------------------
       a            5.846652 Angstrom     dE/de1(xx)    -0.002935 eV/strain
       b            7.842859 Angstrom     dE/de2(yy)    -0.002405 eV/strain
       c            9.225557 Angstrom     dE/de3(zz)    -0.000887 eV/strain
       alpha      148.226073 Degrees      dE/de4(yz)     0.000056 eV/strain
       beta        50.672188 Degrees      dE/de5(xz)     0.001323 eV/strain
       gamma      103.345973 Degrees      dE/de6(xy)    -0.000671 eV/strain
--------------------------------------------------------------------------------

  Primitive cell volume =           112.781950 Angs**3

  Density of cell =      4.704511 g/cm**3

  Non-primitive cell volume =           112.781950 Angs**3


  Final internal derivatives :

--------------------------------------------------------------------------------
   No.  Atomic          a             b             c           Radius
        Label          (eV)          (eV)          (eV)        (eV/Angs)
--------------------------------------------------------------------------------
      1 Ti    c       0.000000      0.000000      0.000000      0.000000
      2 Ti    c      -0.001311     -0.000733     -0.000580      0.000000
      3 Ti    c       0.000144     -0.003410      0.004040      0.000000
      4 Ti    c      -0.001758      0.000996     -0.002700      0.000000
      5 O     c       0.000505      0.000884     -0.000346      0.000000
      6 O     c      -0.000417      0.000302     -0.000703      0.000000
      7 O     c       0.001429      0.003943     -0.003460      0.000000
      8 O     c       0.001051      0.004363     -0.003765      0.000000
      9 O     c      -0.000099     -0.001414      0.001572      0.000000
     10 O     c      -0.000865      0.001259     -0.002088      0.000000
     11 O     c       0.000585     -0.001401      0.002423      0.000000
     12 O     c       0.000962     -0.002165      0.003191      0.000000
--------------------------------------------------------------------------------
  Maximum abs         0.001758      0.004363      0.004040      0.000000
--------------------------------------------------------------------------------


  Time to end of optimisation =       6.4856 seconds


  Peak dynamic memory used =       1.84 MB 


  Timing analysis for GULP :

--------------------------------------------------------------------------------
  Task / Subroutine                                          Time (Seconds)
--------------------------------------------------------------------------------
  Calculation of reciprocal space energy and derivatives          0.1276
  Calculation of real space energy and derivatives                6.3283
  Calculation and manipulation of Hessian matrix                  0.0011
  Calculation of matrix inversion                                 0.0019
  Global summation overhead                                       0.0006
--------------------------------------------------------------------------------
  Total CPU time                                                  6.4856
--------------------------------------------------------------------------------


  Job Finished at 11:06.16 29th May        2024                               

