********************************************************************************
*                       GENERAL UTILITY LATTICE PROGRAM                        *
*                                 Julian Gale                                  *
*                       Curtin Institute for Computation                       *
*                    School of Molecular and Life Sciences                     *
*                    Curtin University, Western Australia                      *
********************************************************************************
* Version = 6.0.0 * Last modified =  12th July 2021                            *
********************************************************************************
*  optimise     - perform optimisation run                                     *
*  conp         - constant pressure calculation                                *
*  conjugate    - use conjugate gradients minimiser                            *
********************************************************************************

  Job Started  at 11:05.48 29th May        2024                               

  Number of CPUs =     1


  Total number of configurations input =      1

********************************************************************************
*  Input for Configuration =   1                                               *
********************************************************************************

  Formula = Ti4O8                                                       

  Number of irreducible atoms/shells =      12


  Total number atoms/shells =      12

  Dimensionality = 3               :  Bulk   



  Cartesian lattice vectors (Angstroms) :

        6.427335    4.734203    5.062033
        3.284374    5.846832    4.330112
        0.803883    2.271735    7.570990

  Cell parameters (Angstroms/Degrees):

  a =       9.4524    alpha =  39.8305
  b =       7.9826    beta  =  43.7548
  c =       7.9452    gamma =  20.4293

  Initial cell volume =         134.024851 Angs**3

  Temperature of configuration =   0.00     K 

  Pressure of configuration =         0.000 GPa 

  Fractional coordinates of asymmetric unit :

--------------------------------------------------------------------------------
   No.  Atomic       x           y          z         Charge      Occupancy
        Label      (Frac)      (Frac)     (Frac)        (e)         (Frac)  
--------------------------------------------------------------------------------
      1 Ti    c    0.205427    0.104306    0.429230     2.19600    1.000000    
      2 Ti    c    0.565907 *  0.104305 *  0.429231 *   2.19600    1.000000    
      3 Ti    c    0.565908 *  0.464784 *  0.068750 *   2.19600    1.000000    
      4 Ti    c    0.205429 *  0.464785 *  0.068750 *   2.19600    1.000000    
      5 O     c    0.347251 *  0.464784 *  0.287407 *  -1.09800    1.000000    
      6 O     c    0.205427 *  0.246129 *  0.068752 *  -1.09800    1.000000    
      7 O     c    0.565908 *  0.322961 *  0.429230 *  -1.09800    1.000000    
      8 O     c    0.424083 *  0.104305 *  0.210575 *  -1.09800    1.000000    
      9 O     c    0.205428 *  0.683441 *  0.068749 *  -1.09800    1.000000    
     10 O     c    0.707730 *  0.104305 *  0.647888 *  -1.09800    1.000000    
     11 O     c    0.063604 *  0.464784 *  0.571052 *  -1.09800    1.000000    
     12 O     c    0.565908 *  0.606608 *  0.429230 *  -1.09800    1.000000    
--------------------------------------------------------------------------------



********************************************************************************
*  General input information                                                   *
********************************************************************************

  Species output for all configurations : 

--------------------------------------------------------------------------------
  Species    Type    Atomic    Atomic    Charge       Radii (Angs)     Library
                     Number     Mass       (e)     Cova   Ionic  VDW   Symbol
--------------------------------------------------------------------------------
    Ti       Core       22      47.88   2.196000   1.470  0.000  2.190          
    O        Core        8      16.00  -1.098000   0.730  0.000  1.360          
--------------------------------------------------------------------------------


  Lattice summation method               =    Ewald          (3-D)
                                         =    Parry          (2-D)
                                         =    Saunders et al (1-D)
  Accuracy factor for lattice sums       =   12.000


  Analytic derivatives to be used

  Time limit = Infinity

  Maximum range for interatomic potentials =    100000.000000 Angstroms

  General interatomic potentials :

--------------------------------------------------------------------------------
Atom  Types   Potential      Parameter       Value         Units   Cutoffs(Ang)
  1     2                                                            Min /  Max 
--------------------------------------------------------------------------------
Ti   c Ti   c Buckingham    Buckingham A     31120.100    eV        0.000 15.000
                            Buckingham rho  0.15400000    Ang       
                            Buckingham C     5.2500000    eV*Ang^6  
--------------------------------------------------------------------------------
O    c O    c Buckingham    Buckingham A     11782.700    eV        0.000 15.000
                            Buckingham rho  0.23400000    Ang       
                            Buckingham C     30.220000    eV*Ang^6  
--------------------------------------------------------------------------------
O    c Ti   c Buckingham    Buckingham A     16957.500    eV        0.000 15.000
                            Buckingham rho  0.19400000    Ang       
                            Buckingham C     12.590000    eV*Ang^6  
--------------------------------------------------------------------------------
Ti   c Ti   c Lennard       Lennard-Jones A  1.0000000    eV*Ang^m  0.000 15.000
                            Lennard-Jones B  0.0000000    eV*Ang^n  
                            Exponent m        12          None
                            Exponent n         6          None
--------------------------------------------------------------------------------
O    c O    c Lennard       Lennard-Jones A  1.0000000    eV*Ang^m  0.000 15.000
                            Lennard-Jones B  0.0000000    eV*Ang^n  
                            Exponent m        12          None
                            Exponent n         6          None
--------------------------------------------------------------------------------
O    c Ti   c Lennard       Lennard-Jones A  1.0000000    eV*Ang^m  0.000 15.000
                            Lennard-Jones B  0.0000000    eV*Ang^n  
                            Exponent m        12          None
                            Exponent n         6          None
--------------------------------------------------------------------------------

********************************************************************************
*  Output for configuration   1                                                *
********************************************************************************


  Components of energy : 

--------------------------------------------------------------------------------
  Interatomic potentials     =         235.33966456 eV    
  Monopole - monopole (real) =         -66.71302363 eV    
  Monopole - monopole (recip)=         -85.68426622 eV    
  Monopole - monopole (total)=        -152.39728985 eV    
--------------------------------------------------------------------------------
  Total lattice energy       =          82.94237470 eV    
--------------------------------------------------------------------------------
  Total lattice energy       =            8002.6713 kJ/(mole unit cells)
--------------------------------------------------------------------------------


  Number of variables =       39

  Maximum number of calculations  =          1000
  Maximum Hessian update interval =            10
  Maximum step size               =   1.000000000
  Maximum parameter tolerance     =   0.000010000
  Maximum function  tolerance     =   0.000010000
  Maximum gradient  tolerance     =   0.001000000
  Maximum gradient  component     =   0.010000000

  Symmetry not applied to optimisation

  Cell parameters to be optimised using strains

  Conjugate gradient optimiser to be used

  Lower half triangular hessian to be used

  Minimiser to switch to BFGS with exact hessian
  When gradient norm is less than     0.500000

  Start of bulk optimisation :

  Cycle:      0 Energy:        82.942375  Gnorm:     81.683634  CPU:    0.040
  Cycle:      1 Energy:       -48.528687  Gnorm:     48.352928  CPU:    0.113
  Cycle:      2 Energy:       -65.885345  Gnorm:     23.465237  CPU:    0.200
  Cycle:      3 Energy:       -85.291839  Gnorm:     25.098820  CPU:    0.272
  Cycle:      4 Energy:      -111.209622  Gnorm:     14.165544  CPU:    0.383
  Cycle:      5 Energy:      -124.667920  Gnorm:      6.268476  CPU:    0.451
  Cycle:      6 Energy:      -128.796770  Gnorm:      4.556550  CPU:    0.520
  Cycle:      7 Energy:      -131.007378  Gnorm:      3.915143  CPU:    0.588
  Cycle:      8 Energy:      -135.037359  Gnorm:      3.717809  CPU:    0.668
  Cycle:      9 Energy:      -137.573842  Gnorm:      3.734850  CPU:    0.721
  Cycle:     10 Energy:      -139.038477  Gnorm:      2.385790  CPU:    0.776
  Cycle:     11 Energy:      -140.102271  Gnorm:      1.747018  CPU:    0.856
  Cycle:     12 Energy:      -140.812904  Gnorm:      2.119995  CPU:    0.923
  Cycle:     13 Energy:      -143.036619  Gnorm:      2.429171  CPU:    1.004
  Cycle:     14 Energy:      -144.010596  Gnorm:      2.050176  CPU:    1.074
  Cycle:     15 Energy:      -144.779777  Gnorm:      1.779226  CPU:    1.144
  Cycle:     16 Energy:      -145.432031  Gnorm:      1.060301  CPU:    1.215
  Cycle:     17 Energy:      -145.652989  Gnorm:      1.172333  CPU:    1.286
  Cycle:     18 Energy:      -146.067768  Gnorm:      1.766871  CPU:    1.357
  Cycle:     19 Energy:      -146.848357  Gnorm:      2.104818  CPU:    1.428
  Cycle:     20 Energy:      -147.130984  Gnorm:      1.141018  CPU:    1.499
  Cycle:     21 Energy:      -147.410006  Gnorm:      1.148080  CPU:    1.570
  Cycle:     22 Energy:      -147.664586  Gnorm:      1.044491  CPU:    1.628
  Cycle:     23 Energy:      -147.973856  Gnorm:      1.420913  CPU:    1.698
  Cycle:     24 Energy:      -148.544335  Gnorm:      2.206078  CPU:    1.769
  Cycle:     25 Energy:      -149.077195  Gnorm:      1.763443  CPU:    1.827
  Cycle:     26 Energy:      -149.640529  Gnorm:      1.025896  CPU:    1.897
  Cycle:     27 Energy:      -150.055760  Gnorm:      1.058601  CPU:    1.968
  Cycle:     28 Energy:      -150.220281  Gnorm:      0.872652  CPU:    2.025
  Cycle:     29 Energy:      -150.361551  Gnorm:      0.750833  CPU:    2.095
  Cycle:     30 Energy:      -150.449943  Gnorm:      0.602720  CPU:    2.153
  Cycle:     31 Energy:      -150.579677  Gnorm:      0.904946  CPU:    2.223
  Cycle:     32 Energy:      -150.725019  Gnorm:      0.782960  CPU:    2.280
  Cycle:     33 Energy:      -150.905193  Gnorm:      0.858067  CPU:    2.351
  Cycle:     34 Energy:      -151.061058  Gnorm:      0.990403  CPU:    2.408
  Cycle:     35 Energy:      -151.231170  Gnorm:      0.745611  CPU:    2.465
  Cycle:     36 Energy:      -151.379626  Gnorm:      0.730502  CPU:    2.536
  Cycle:     37 Energy:      -151.471345  Gnorm:      0.808307  CPU:    2.593
  Cycle:     38 Energy:      -151.559442  Gnorm:      0.601973  CPU:    2.651
  Cycle:     39 Energy:      -151.655422  Gnorm:      0.635385  CPU:    2.722
  Cycle:     40 Energy:      -151.703050  Gnorm:      0.475693  CPU:    2.780
  ** Hessian calculated **
  Cycle:     41 Energy:      -151.809221  Gnorm:      0.728924  CPU:    2.877
  Cycle:     42 Energy:      -151.974160  Gnorm:      0.600077  CPU:    2.948
  Cycle:     43 Energy:      -152.093133  Gnorm:      0.574740  CPU:    3.005
  Cycle:     44 Energy:      -152.238460  Gnorm:      0.841425  CPU:    3.075
  Cycle:     45 Energy:      -152.539140  Gnorm:      1.127074  CPU:    3.147
  Cycle:     46 Energy:      -152.686966  Gnorm:      0.803387  CPU:    3.219
  Cycle:     47 Energy:      -152.953270  Gnorm:      0.626142  CPU:    3.291
  Cycle:     48 Energy:      -153.033395  Gnorm:      0.414771  CPU:    3.348
  Cycle:     49 Energy:      -153.135032  Gnorm:      0.482312  CPU:    3.420
  Cycle:     50 Energy:      -153.213902  Gnorm:      0.516922  CPU:    3.492
  ** Hessian calculated **
  Cycle:     51 Energy:      -153.260915  Gnorm:      0.338771  CPU:    3.592
  Cycle:     52 Energy:      -153.295150  Gnorm:      0.341918  CPU:    3.664
  Cycle:     53 Energy:      -153.342189  Gnorm:      0.432047  CPU:    3.736
  Cycle:     54 Energy:      -153.413620  Gnorm:      0.615856  CPU:    3.808
  Cycle:     55 Energy:      -153.487982  Gnorm:      0.599728  CPU:    3.881
  Cycle:     56 Energy:      -153.573922  Gnorm:      0.481134  CPU:    3.954
  Cycle:     57 Energy:      -153.719043  Gnorm:      0.481690  CPU:    4.027
  Cycle:     58 Energy:      -153.823543  Gnorm:      0.444713  CPU:    4.085
  Cycle:     59 Energy:      -153.906762  Gnorm:      0.419496  CPU:    4.144
  Cycle:     60 Energy:      -153.985048  Gnorm:      0.437846  CPU:    4.216
  ** Hessian calculated **
  Cycle:     61 Energy:      -154.230492  Gnorm:      0.436083  CPU:    4.358
  ** Hessian calculated **
  Cycle:     62 Energy:      -154.264102  Gnorm:      0.210231  CPU:    4.457
  Cycle:     63 Energy:      -154.280909  Gnorm:      0.176514  CPU:    4.529
  Cycle:     64 Energy:      -154.290013  Gnorm:      0.207010  CPU:    4.587
  Cycle:     65 Energy:      -154.315571  Gnorm:      0.337217  CPU:    4.659
  Cycle:     66 Energy:      -154.329459  Gnorm:      0.169130  CPU:    4.717
  Cycle:     67 Energy:      -154.338078  Gnorm:      0.184569  CPU:    4.776
  Cycle:     68 Energy:      -154.351185  Gnorm:      0.196749  CPU:    4.848
  Cycle:     69 Energy:      -154.381601  Gnorm:      0.285732  CPU:    4.920
  Cycle:     70 Energy:      -154.410894  Gnorm:      0.280536  CPU:    4.991
  Cycle:     71 Energy:      -154.485861  Gnorm:      0.395838  CPU:    5.062
  ** Hessian calculated **
  Cycle:     72 Energy:      -154.638084  Gnorm:      0.289576  CPU:    5.190
  Cycle:     73 Energy:      -154.663518  Gnorm:      0.251609  CPU:    5.249
  ** Hessian calculated **
  Cycle:     74 Energy:      -154.687129  Gnorm:      0.029612  CPU:    5.365
  ** Hessian calculated **
  Cycle:     75 Energy:      -154.687283  Gnorm:      0.016616  CPU:    5.478
  Cycle:     76 Energy:      -154.687359  Gnorm:      0.012304  CPU:    5.551
  Cycle:     77 Energy:      -154.687385  Gnorm:      0.013407  CPU:    5.611
  Cycle:     78 Energy:      -154.687447  Gnorm:      0.014190  CPU:    5.670
  Cycle:     79 Energy:      -154.687511  Gnorm:      0.011881  CPU:    5.743
  Cycle:     80 Energy:      -154.687617  Gnorm:      0.009589  CPU:    5.817
  Cycle:     81 Energy:      -154.687676  Gnorm:      0.009549  CPU:    5.877
  Cycle:     82 Energy:      -154.687757  Gnorm:      0.013987  CPU:    5.964
  Cycle:     83 Energy:      -154.687880  Gnorm:      0.021390  CPU:    6.038
  Cycle:     84 Energy:      -154.688046  Gnorm:      0.021395  CPU:    6.111
  ** Hessian calculated **
  Cycle:     85 Energy:      -154.688126  Gnorm:      0.009091  CPU:    6.213
  Cycle:     86 Energy:      -154.688209  Gnorm:      0.017128  CPU:    6.300
  Cycle:     87 Energy:      -154.688244  Gnorm:      0.010380  CPU:    6.374
  Cycle:     88 Energy:      -154.688291  Gnorm:      0.011844  CPU:    6.475
  Cycle:     89 Energy:      -154.688328  Gnorm:      0.008900  CPU:    6.534
  Cycle:     90 Energy:      -154.688376  Gnorm:      0.011074  CPU:    6.608
  Cycle:     91 Energy:      -154.688429  Gnorm:      0.007813  CPU:    6.681
  Cycle:     92 Energy:      -154.688506  Gnorm:      0.010550  CPU:    6.754
  Cycle:     93 Energy:      -154.688602  Gnorm:      0.022716  CPU:    6.828
  Cycle:     94 Energy:      -154.688863  Gnorm:      0.015673  CPU:    6.902
  ** Hessian calculated **
  Cycle:     95 Energy:      -154.688997  Gnorm:      0.019537  CPU:    7.004
  Cycle:     96 Energy:      -154.689083  Gnorm:      0.016630  CPU:    7.063
  Cycle:     97 Energy:      -154.689146  Gnorm:      0.020828  CPU:    7.122
  Cycle:     98 Energy:      -154.689218  Gnorm:      0.008149  CPU:    7.181
  Cycle:     99 Energy:      -154.689296  Gnorm:      0.013860  CPU:    7.255
  Cycle:    100 Energy:      -154.689383  Gnorm:      0.016076  CPU:    7.328
  Cycle:    101 Energy:      -154.689485  Gnorm:      0.018465  CPU:    7.402
  Cycle:    102 Energy:      -154.689577  Gnorm:      0.013929  CPU:    7.462
  Cycle:    103 Energy:      -154.689711  Gnorm:      0.019325  CPU:    7.537
  Cycle:    104 Energy:      -154.689860  Gnorm:      0.019771  CPU:    7.611
  ** Hessian calculated **
  Cycle:    105 Energy:      -154.689956  Gnorm:      0.015051  CPU:    7.714
  Cycle:    106 Energy:      -154.690021  Gnorm:      0.018246  CPU:    7.787
  Cycle:    107 Energy:      -154.690108  Gnorm:      0.012862  CPU:    7.861
  Cycle:    108 Energy:      -154.690188  Gnorm:      0.013972  CPU:    7.934
  Cycle:    109 Energy:      -154.690312  Gnorm:      0.016997  CPU:    8.007
  Cycle:    110 Energy:      -154.690423  Gnorm:      0.019911  CPU:    8.067
  Cycle:    111 Energy:      -154.690523  Gnorm:      0.011015  CPU:    8.126
  Cycle:    112 Energy:      -154.690609  Gnorm:      0.017387  CPU:    8.199
  Cycle:    113 Energy:      -154.690801  Gnorm:      0.016432  CPU:    8.273
  Cycle:    114 Energy:      -154.691082  Gnorm:      0.031050  CPU:    8.346
  ** Hessian calculated **
  Cycle:    115 Energy:      -154.691284  Gnorm:      0.018368  CPU:    8.449
  Cycle:    116 Energy:      -154.691533  Gnorm:      0.017102  CPU:    8.523
  Cycle:    117 Energy:      -154.691609  Gnorm:      0.012818  CPU:    8.596
  Cycle:    118 Energy:      -154.691672  Gnorm:      0.021287  CPU:    8.656
  Cycle:    119 Energy:      -154.691772  Gnorm:      0.019079  CPU:    8.729
  Cycle:    120 Energy:      -154.691966  Gnorm:      0.024442  CPU:    8.802
  Cycle:    121 Energy:      -154.692191  Gnorm:      0.016121  CPU:    8.876
  Cycle:    122 Energy:      -154.692363  Gnorm:      0.020814  CPU:    8.935
  Cycle:    123 Energy:      -154.692537  Gnorm:      0.018082  CPU:    9.009
  Cycle:    124 Energy:      -154.692733  Gnorm:      0.025118  CPU:    9.082
  ** Hessian calculated **
  Cycle:    125 Energy:      -154.692905  Gnorm:      0.019273  CPU:    9.184
  Cycle:    126 Energy:      -154.693076  Gnorm:      0.027332  CPU:    9.258
  Cycle:    127 Energy:      -154.693217  Gnorm:      0.029170  CPU:    9.317
  Cycle:    128 Energy:      -154.693392  Gnorm:      0.021595  CPU:    9.377
  Cycle:    129 Energy:      -154.693646  Gnorm:      0.023278  CPU:    9.450
  Cycle:    130 Energy:      -154.693832  Gnorm:      0.022756  CPU:    9.510
  Cycle:    131 Energy:      -154.694015  Gnorm:      0.015255  CPU:    9.583
  Cycle:    132 Energy:      -154.694133  Gnorm:      0.019020  CPU:    9.657
  Cycle:    133 Energy:      -154.694494  Gnorm:      0.029212  CPU:    9.731
  Cycle:    134 Energy:      -154.694876  Gnorm:      0.047814  CPU:    9.805
  ** Hessian calculated **
  Cycle:    135 Energy:      -154.695247  Gnorm:      0.026036  CPU:    9.922
  Cycle:    136 Energy:      -154.695540  Gnorm:      0.036389  CPU:   10.010
  Cycle:    137 Energy:      -154.695796  Gnorm:      0.019650  CPU:   10.084
  Cycle:    138 Energy:      -154.695943  Gnorm:      0.021101  CPU:   10.143
  Cycle:    139 Energy:      -154.696305  Gnorm:      0.026826  CPU:   10.217
  Cycle:    140 Energy:      -154.696636  Gnorm:      0.032627  CPU:   10.291
  Cycle:    141 Energy:      -154.696965  Gnorm:      0.019941  CPU:   10.364
  Cycle:    142 Energy:      -154.697221  Gnorm:      0.026624  CPU:   10.424
  Cycle:    143 Energy:      -154.697502  Gnorm:      0.024955  CPU:   10.498
  Cycle:    144 Energy:      -154.697886  Gnorm:      0.035898  CPU:   10.572
  ** Hessian calculated **
  Cycle:    145 Energy:      -154.698225  Gnorm:      0.024469  CPU:   10.674
  Cycle:    146 Energy:      -154.698545  Gnorm:      0.029190  CPU:   10.748
  Cycle:    147 Energy:      -154.698835  Gnorm:      0.021125  CPU:   10.822
  Cycle:    148 Energy:      -154.699124  Gnorm:      0.034184  CPU:   10.896
  Cycle:    149 Energy:      -154.699455  Gnorm:      0.039539  CPU:   10.956
  Cycle:    150 Energy:      -154.699832  Gnorm:      0.035755  CPU:   11.030
  Cycle:    151 Energy:      -154.700282  Gnorm:      0.021687  CPU:   11.104
  Cycle:    152 Energy:      -154.700555  Gnorm:      0.028441  CPU:   11.165
  Cycle:    153 Energy:      -154.701307  Gnorm:      0.033840  CPU:   11.241
  Cycle:    154 Energy:      -154.701962  Gnorm:      0.055593  CPU:   11.301
  ** Hessian calculated **
  Cycle:    155 Energy:      -154.702657  Gnorm:      0.036822  CPU:   11.405
  Cycle:    156 Energy:      -154.703562  Gnorm:      0.034528  CPU:   11.479
  Cycle:    157 Energy:      -154.703904  Gnorm:      0.024655  CPU:   11.539
  Cycle:    158 Energy:      -154.704466  Gnorm:      0.047039  CPU:   11.613
  Cycle:    159 Energy:      -154.704930  Gnorm:      0.046233  CPU:   11.674
  Cycle:    160 Energy:      -154.705552  Gnorm:      0.042606  CPU:   11.749
  Cycle:    161 Energy:      -154.706122  Gnorm:      0.026315  CPU:   11.823
  Cycle:    162 Energy:      -154.706633  Gnorm:      0.038073  CPU:   11.898
  Cycle:    163 Energy:      -154.707161  Gnorm:      0.032050  CPU:   11.972
  Cycle:    164 Energy:      -154.708076  Gnorm:      0.060960  CPU:   12.046
  ** Hessian calculated **
  Cycle:    165 Energy:      -154.708978  Gnorm:      0.033210  CPU:   12.154
  Cycle:    166 Energy:      -154.709572  Gnorm:      0.042849  CPU:   12.228
  Cycle:    167 Energy:      -154.710142  Gnorm:      0.033634  CPU:   12.302
  Cycle:    168 Energy:      -154.710484  Gnorm:      0.040890  CPU:   12.362
  Cycle:    169 Energy:      -154.711350  Gnorm:      0.052851  CPU:   12.437
  Cycle:    170 Energy:      -154.712264  Gnorm:      0.050313  CPU:   12.511
  Cycle:    171 Energy:      -154.713304  Gnorm:      0.032914  CPU:   12.585
  Cycle:    172 Energy:      -154.713897  Gnorm:      0.043481  CPU:   12.645
  Cycle:    173 Energy:      -154.715689  Gnorm:      0.055682  CPU:   12.719
  Cycle:    174 Energy:      -154.717231  Gnorm:      0.080483  CPU:   12.780
  ** Hessian calculated **
  Cycle:    175 Energy:      -154.718789  Gnorm:      0.057716  CPU:   12.887
  Cycle:    176 Energy:      -154.720900  Gnorm:      0.051065  CPU:   12.961
  Cycle:    177 Energy:      -154.721651  Gnorm:      0.039948  CPU:   13.036
  Cycle:    178 Energy:      -154.722473  Gnorm:      0.075289  CPU:   13.110
  Cycle:    179 Energy:      -154.723858  Gnorm:      0.056588  CPU:   13.185
  Cycle:    180 Energy:      -154.725594  Gnorm:      0.064046  CPU:   13.259
  Cycle:    181 Energy:      -154.726840  Gnorm:      0.041235  CPU:   13.319
  Cycle:    182 Energy:      -154.728002  Gnorm:      0.056859  CPU:   13.394
  Cycle:    183 Energy:      -154.729325  Gnorm:      0.049362  CPU:   13.469
  Cycle:    184 Energy:      -154.731729  Gnorm:      0.106459  CPU:   13.543
  ** Hessian calculated **
  Cycle:    185 Energy:      -154.734244  Gnorm:      0.052355  CPU:   13.647
  Cycle:    186 Energy:      -154.735798  Gnorm:      0.064752  CPU:   13.722
  Cycle:    187 Energy:      -154.737273  Gnorm:      0.056541  CPU:   13.797
  Cycle:    188 Energy:      -154.738167  Gnorm:      0.071578  CPU:   13.857
  Cycle:    189 Energy:      -154.740316  Gnorm:      0.078262  CPU:   13.918
  Cycle:    190 Energy:      -154.742740  Gnorm:      0.079245  CPU:   13.992
  Cycle:    191 Energy:      -154.745410  Gnorm:      0.055807  CPU:   14.067
  Cycle:    192 Energy:      -154.746934  Gnorm:      0.069883  CPU:   14.128
  Cycle:    193 Energy:      -154.752500  Gnorm:      0.093047  CPU:   14.217
  Cycle:    194 Energy:      -154.757868  Gnorm:      0.160719  CPU:   14.292
  ** Hessian calculated **
  Cycle:    195 Energy:      -154.763609  Gnorm:      0.101802  CPU:   14.397
  Cycle:    196 Energy:      -154.770730  Gnorm:      0.089477  CPU:   14.472
  Cycle:    197 Energy:      -154.773194  Gnorm:      0.074809  CPU:   14.547
  Cycle:    198 Energy:      -154.775894  Gnorm:      0.124478  CPU:   14.622
  Cycle:    199 Energy:      -154.780002  Gnorm:      0.104606  CPU:   14.697
  Cycle:    200 Energy:      -154.787534  Gnorm:      0.103815  CPU:   14.772
  Cycle:    201 Energy:      -154.791061  Gnorm:      0.079639  CPU:   14.833
  Cycle:    202 Energy:      -154.796232  Gnorm:      0.108608  CPU:   14.908
  Cycle:    203 Energy:      -154.801161  Gnorm:      0.102754  CPU:   14.983
  Cycle:    204 Energy:      -154.826479  Gnorm:      0.309876  CPU:   15.073
  ** Hessian calculated **
  Cycle:    205 Energy:      -154.849355  Gnorm:      0.138821  CPU:   15.178
  Cycle:    206 Energy:      -154.859322  Gnorm:      0.146530  CPU:   15.253
  Cycle:    207 Energy:      -154.868805  Gnorm:      0.123189  CPU:   15.328
  Cycle:    208 Energy:      -154.875729  Gnorm:      0.189211  CPU:   15.388
  Cycle:    209 Energy:      -154.887688  Gnorm:      0.192263  CPU:   15.463
  Cycle:    210 Energy:      -154.904617  Gnorm:      0.206757  CPU:   15.538
  Cycle:    211 Energy:      -154.921480  Gnorm:      0.144994  CPU:   15.613
  Cycle:    212 Energy:      -154.931892  Gnorm:      0.187948  CPU:   15.674
  Cycle:    213 Energy:      -154.960522  Gnorm:      0.281466  CPU:   15.749
  Cycle:    214 Energy:      -154.991317  Gnorm:      0.263360  CPU:   15.811
  ** Hessian calculated **
  Cycle:    215 Energy:      -155.112523  Gnorm:      0.233938  CPU:   15.964
  ** Hessian calculated **
  Cycle:    216 Energy:      -155.406930  Gnorm:      0.266558  CPU:   16.116
  ** Hessian calculated **
  Cycle:    217 Energy:      -155.425394  Gnorm:      0.172139  CPU:   16.225
  Cycle:    218 Energy:      -155.439703  Gnorm:      0.168391  CPU:   16.302
  Cycle:    219 Energy:      -155.446751  Gnorm:      0.142991  CPU:   16.364
  Cycle:    220 Energy:      -155.453193  Gnorm:      0.120856  CPU:   16.426
  Cycle:    221 Energy:      -155.460034  Gnorm:      0.133199  CPU:   16.503
  Cycle:    222 Energy:      -155.476565  Gnorm:      0.137323  CPU:   16.579
  Cycle:    223 Energy:      -155.484478  Gnorm:      0.097743  CPU:   16.642
  Cycle:    224 Energy:      -155.491016  Gnorm:      0.106786  CPU:   16.719
  Cycle:    225 Energy:      -155.499894  Gnorm:      0.168037  CPU:   16.796
  Cycle:    226 Energy:      -155.524922  Gnorm:      0.135108  CPU:   16.875
  ** Hessian calculated **
  Cycle:    227 Energy:      -155.538268  Gnorm:      0.156590  CPU:   16.986
  Cycle:    228 Energy:      -155.545126  Gnorm:      0.121180  CPU:   17.049
  Cycle:    229 Energy:      -155.549719  Gnorm:      0.119310  CPU:   17.113
  Cycle:    230 Energy:      -155.556029  Gnorm:      0.103256  CPU:   17.191
  Cycle:    231 Energy:      -155.562357  Gnorm:      0.127427  CPU:   17.270
  Cycle:    232 Energy:      -155.571286  Gnorm:      0.143682  CPU:   17.349
  Cycle:    233 Energy:      -155.581096  Gnorm:      0.127120  CPU:   17.428
  Cycle:    234 Energy:      -155.592686  Gnorm:      0.150175  CPU:   17.507
  Cycle:    235 Energy:      -155.602321  Gnorm:      0.121922  CPU:   17.586
  Cycle:    236 Energy:      -155.623696  Gnorm:      0.284569  CPU:   17.666
  ** Hessian calculated **
  Cycle:    237 Energy:      -155.641986  Gnorm:      0.121004  CPU:   17.778
  Cycle:    238 Energy:      -155.651984  Gnorm:      0.193372  CPU:   17.858
  Cycle:    239 Energy:      -155.666696  Gnorm:      0.196047  CPU:   17.938
  Cycle:    240 Energy:      -155.681752  Gnorm:      0.201677  CPU:   18.018
  Cycle:    241 Energy:      -155.700487  Gnorm:      0.161395  CPU:   18.098
  Cycle:    242 Energy:      -155.714610  Gnorm:      0.186465  CPU:   18.163
  Cycle:    243 Energy:      -155.732399  Gnorm:      0.178460  CPU:   18.243
  Cycle:    244 Energy:      -155.754380  Gnorm:      0.211948  CPU:   18.324
  Cycle:    245 Energy:      -155.787555  Gnorm:      0.286465  CPU:   18.405
  Cycle:    246 Energy:      -155.857134  Gnorm:      0.374669  CPU:   18.487
  ** Hessian calculated **
  Cycle:    247 Energy:      -155.931637  Gnorm:      0.366221  CPU:   18.603
  Cycle:    248 Energy:      -155.974571  Gnorm:      0.323989  CPU:   18.669
  Cycle:    249 Energy:      -156.010604  Gnorm:      0.235178  CPU:   18.750
  Cycle:    250 Energy:      -156.042943  Gnorm:      0.241611  CPU:   18.832
  Cycle:    251 Energy:      -156.072167  Gnorm:      0.228319  CPU:   18.914
  Cycle:    252 Energy:      -156.097337  Gnorm:      0.208860  CPU:   18.996
  Cycle:    253 Energy:      -156.158238  Gnorm:      0.295760  CPU:   19.078
  Cycle:    254 Energy:      -156.187786  Gnorm:      0.196510  CPU:   19.145
  Cycle:    255 Energy:      -156.201331  Gnorm:      0.192800  CPU:   19.211
  Cycle:    256 Energy:      -156.246270  Gnorm:      0.271950  CPU:   19.294
  ** Hessian calculated **
  Cycle:    257 Energy:      -156.267240  Gnorm:      0.189920  CPU:   19.414
  Cycle:    258 Energy:      -156.281812  Gnorm:      0.167384  CPU:   19.497
  Cycle:    259 Energy:      -156.299687  Gnorm:      0.204043  CPU:   19.580
  Cycle:    260 Energy:      -156.319465  Gnorm:      0.193431  CPU:   19.663
  Cycle:    261 Energy:      -156.338039  Gnorm:      0.175861  CPU:   19.747
  Cycle:    262 Energy:      -156.356714  Gnorm:      0.204019  CPU:   19.830
  Cycle:    263 Energy:      -156.388527  Gnorm:      0.277617  CPU:   19.913
  Cycle:    264 Energy:      -156.446835  Gnorm:      0.256993  CPU:   19.998
  Cycle:    265 Energy:      -156.514158  Gnorm:      0.307826  CPU:   20.085
  Cycle:    266 Energy:      -156.579233  Gnorm:      0.356601  CPU:   20.173
  ** Hessian calculated **
  Cycle:    267 Energy:      -156.615276  Gnorm:      0.259088  CPU:   20.296
  Cycle:    268 Energy:      -156.651994  Gnorm:      0.317136  CPU:   20.383
  Cycle:    269 Energy:      -156.681184  Gnorm:      0.283204  CPU:   20.452
  Cycle:    270 Energy:      -156.720170  Gnorm:      0.188993  CPU:   20.539
  Cycle:    271 Energy:      -156.740506  Gnorm:      0.208750  CPU:   20.609
  Cycle:    272 Energy:      -156.757964  Gnorm:      0.183826  CPU:   20.697
  Cycle:    273 Energy:      -156.777993  Gnorm:      0.196031  CPU:   20.785
  Cycle:    274 Energy:      -156.804606  Gnorm:      0.226314  CPU:   20.875
  Cycle:    275 Energy:      -156.825691  Gnorm:      0.188735  CPU:   20.946
  Cycle:    276 Energy:      -156.856894  Gnorm:      0.327788  CPU:   21.035
  ** Hessian calculated **
  Cycle:    277 Energy:      -157.092881  Gnorm:      0.335239  CPU:   21.232
  Cycle:    278 Energy:      -157.297409  Gnorm:      0.366801  CPU:   21.323
  ** Hessian calculated **
  Cycle:    279 Energy:      -157.499999  Gnorm:      0.072107  CPU:   21.487
  Cycle:    280 Energy:      -157.508814  Gnorm:      0.024927  CPU:   21.577
  Cycle:    281 Energy:      -157.510055  Gnorm:      0.010063  CPU:   21.651
  Cycle:    282 Energy:      -157.510180  Gnorm:      0.004789  CPU:   21.741
  Cycle:    283 Energy:      -157.510197  Gnorm:      0.001335  CPU:   21.815


  **** Optimisation achieved ****


  Final energy =    -157.51019806 eV      
  Final Gnorm  =       0.00026539

  Components of energy : 

--------------------------------------------------------------------------------
  Interatomic potentials     =          11.51090476 eV    
  Monopole - monopole (real) =         -63.24749330 eV    
  Monopole - monopole (recip)=        -105.77360952 eV    
  Monopole - monopole (total)=        -169.02110282 eV    
--------------------------------------------------------------------------------
  Total lattice energy       =        -157.51019806 eV    
--------------------------------------------------------------------------------
  Total lattice energy       =          -15197.3263 kJ/(mole unit cells)
--------------------------------------------------------------------------------

  Final fractional coordinates of atoms :

--------------------------------------------------------------------------------
   No.  Atomic        x           y          z          Radius
        Label       (Frac)      (Frac)     (Frac)       (Angs) 
--------------------------------------------------------------------------------
     1  Ti    c     0.205427    0.104306    0.429230    0.000000
     2  Ti    c     0.227745    0.854312    0.906899    0.000000
     3  Ti    c     0.205425    0.604302    0.429231    0.000000
     4  Ti    c     0.227754    0.354310    0.906893    0.000000
     5  O     c     0.020029    0.357483    0.614635    0.000000
     6  O     c     0.900516    0.026677    0.234142    0.000000
     7  O     c     0.413173    0.107500    0.721477    0.000000
     8  O     c     0.413180    0.607486    0.721484    0.000000
     9  O     c     0.020005    0.857495    0.614650    0.000000
    10  O     c     0.532666    0.776686    0.101983    0.000000
    11  O     c     0.532678    0.276683    0.101974    0.000000
    12  O     c     0.900495    0.526696    0.234150    0.000000
--------------------------------------------------------------------------------

  Final Cartesian lattice vectors (Angstroms) :

        3.666464    3.241288    6.129056
        1.323650    5.085879    4.828328
        0.418706    1.234658    9.133057


  Final cell parameters and derivatives :

--------------------------------------------------------------------------------
       a            7.843101 Angstrom     dE/de1(xx)    -0.000555 eV/strain
       b            7.136594 Angstrom     dE/de2(yy)     0.000182 eV/strain
       c            9.225639 Angstrom     dE/de3(zz)    -0.000096 eV/strain
       alpha       39.325305 Degrees      dE/de4(yz)     0.000327 eV/strain
       beta        31.773160 Degrees      dE/de5(xz)     0.000053 eV/strain
       gamma       24.505616 Degrees      dE/de6(xy)     0.000777 eV/strain
--------------------------------------------------------------------------------

  Primitive cell volume =           112.782436 Angs**3

  Density of cell =      4.704490 g/cm**3

  Non-primitive cell volume =           112.782436 Angs**3


  Final internal derivatives :

--------------------------------------------------------------------------------
   No.  Atomic          a             b             c           Radius
        Label          (eV)          (eV)          (eV)        (eV/Angs)
--------------------------------------------------------------------------------
      1 Ti    c       0.000000      0.000000      0.000000      0.000000
      2 Ti    c      -0.003130     -0.001927     -0.000448      0.000000
      3 Ti    c      -0.001376     -0.001297     -0.001779      0.000000
      4 Ti    c      -0.001216     -0.000976     -0.001732      0.000000
      5 O     c      -0.002320     -0.002966     -0.004271      0.000000
      6 O     c       0.001727      0.000829      0.001152      0.000000
      7 O     c       0.002125      0.002831      0.001416      0.000000
      8 O     c       0.000781      0.000050      0.000725      0.000000
      9 O     c      -0.002337     -0.002093     -0.000836      0.000000
     10 O     c      -0.001830     -0.001570     -0.001518      0.000000
     11 O     c      -0.000370     -0.001073     -0.000258      0.000000
     12 O     c       0.000356      0.002132      0.001550      0.000000
--------------------------------------------------------------------------------
  Maximum abs         0.003130      0.002966      0.004271      0.000000
--------------------------------------------------------------------------------


  Time to end of optimisation =      21.8886 seconds


  Peak dynamic memory used =       1.84 MB 


  Timing analysis for GULP :

--------------------------------------------------------------------------------
  Task / Subroutine                                          Time (Seconds)
--------------------------------------------------------------------------------
  Calculation of reciprocal space energy and derivatives          0.3768
  Calculation of real space energy and derivatives               21.4397
  Calculation and manipulation of Hessian matrix                  0.0032
  Calculation of matrix inversion                                 0.0056
  Global summation overhead                                       0.0018
--------------------------------------------------------------------------------
  Total CPU time                                                 21.8886
--------------------------------------------------------------------------------


  Job Finished at 11:06.10 29th May        2024                               

