********************************************************************************
*                       GENERAL UTILITY LATTICE PROGRAM                        *
*                                 Julian Gale                                  *
*                       Curtin Institute for Computation                       *
*                    School of Molecular and Life Sciences                     *
*                    Curtin University, Western Australia                      *
********************************************************************************
* Version = 6.0.0 * Last modified =  12th July 2021                            *
********************************************************************************
*  optimise     - perform optimisation run                                     *
*  conp         - constant pressure calculation                                *
*  conjugate    - use conjugate gradients minimiser                            *
********************************************************************************

  Job Started  at 11:05.43 29th May        2024                               

  Number of CPUs =     1


  Total number of configurations input =      1

********************************************************************************
*  Input for Configuration =   1                                               *
********************************************************************************

  Formula = Ti4O8                                                       

  Number of irreducible atoms/shells =      12


  Total number atoms/shells =      12

  Dimensionality = 3               :  Bulk   



  Cartesian lattice vectors (Angstroms) :

        7.155658   -0.967259   -0.251185
       -0.688135    3.263080   -0.500692
        0.292023   -0.726208    6.011822

  Cell parameters (Angstroms/Degrees):

  a =       7.2251    alpha = 105.8411
  b =       3.3722    beta  =  88.3229
  c =       6.0626    gamma = 109.0551

  Initial cell volume =         134.024851 Angs**3

  Temperature of configuration =   0.00     K 

  Pressure of configuration =         0.000 GPa 

  Fractional coordinates of asymmetric unit :

--------------------------------------------------------------------------------
   No.  Atomic       x           y          z         Charge      Occupancy
        Label      (Frac)      (Frac)     (Frac)        (e)         (Frac)  
--------------------------------------------------------------------------------
      1 Ti    c    0.000000    0.175254    0.000000     2.19600    1.000000    
      2 Ti    c    0.746735 *  0.428511 *  0.000000 *   2.19600    1.000000    
      3 Ti    c    0.493471 *  0.428513 *  0.746735 *   2.19600    1.000000    
      4 Ti    c    0.746735 *  0.175243 *  0.746735 *   2.19600    1.000000    
      5 O     c    0.560052 *  0.175242 *  0.186687 *  -1.09800    1.000000    
      6 O     c    0.933419 *  0.175242 *  0.306784 *  -1.09800    1.000000    
      7 O     c    0.306785 *  0.428508 *  0.186684 *  -1.09800    1.000000    
      8 O     c    0.186685 *  0.428508 *  0.306787 *  -1.09800    1.000000    
      9 O     c    0.933421 *  0.428510 *  0.560053 *  -1.09800    1.000000    
     10 O     c    0.560050 *  0.428510 *  0.933418 *  -1.09800    1.000000    
     11 O     c    0.186684 *  0.175246 *  0.560050 *  -1.09800    1.000000    
     12 O     c    0.306787 *  0.175246 *  0.933421 *  -1.09800    1.000000    
--------------------------------------------------------------------------------



********************************************************************************
*  General input information                                                   *
********************************************************************************

  Species output for all configurations : 

--------------------------------------------------------------------------------
  Species    Type    Atomic    Atomic    Charge       Radii (Angs)     Library
                     Number     Mass       (e)     Cova   Ionic  VDW   Symbol
--------------------------------------------------------------------------------
    Ti       Core       22      47.88   2.196000   1.470  0.000  2.190          
    O        Core        8      16.00  -1.098000   0.730  0.000  1.360          
--------------------------------------------------------------------------------


  Lattice summation method               =    Ewald          (3-D)
                                         =    Parry          (2-D)
                                         =    Saunders et al (1-D)
  Accuracy factor for lattice sums       =   12.000


  Analytic derivatives to be used

  Time limit = Infinity

  Maximum range for interatomic potentials =    100000.000000 Angstroms

  General interatomic potentials :

--------------------------------------------------------------------------------
Atom  Types   Potential      Parameter       Value         Units   Cutoffs(Ang)
  1     2                                                            Min /  Max 
--------------------------------------------------------------------------------
Ti   c Ti   c Buckingham    Buckingham A     31120.100    eV        0.000 15.000
                            Buckingham rho  0.15400000    Ang       
                            Buckingham C     5.2500000    eV*Ang^6  
--------------------------------------------------------------------------------
O    c O    c Buckingham    Buckingham A     11782.700    eV        0.000 15.000
                            Buckingham rho  0.23400000    Ang       
                            Buckingham C     30.220000    eV*Ang^6  
--------------------------------------------------------------------------------
O    c Ti   c Buckingham    Buckingham A     16957.500    eV        0.000 15.000
                            Buckingham rho  0.19400000    Ang       
                            Buckingham C     12.590000    eV*Ang^6  
--------------------------------------------------------------------------------
Ti   c Ti   c Lennard       Lennard-Jones A  1.0000000    eV*Ang^m  0.000 15.000
                            Lennard-Jones B  0.0000000    eV*Ang^n  
                            Exponent m        12          None
                            Exponent n         6          None
--------------------------------------------------------------------------------
O    c O    c Lennard       Lennard-Jones A  1.0000000    eV*Ang^m  0.000 15.000
                            Lennard-Jones B  0.0000000    eV*Ang^n  
                            Exponent m        12          None
                            Exponent n         6          None
--------------------------------------------------------------------------------
O    c Ti   c Lennard       Lennard-Jones A  1.0000000    eV*Ang^m  0.000 15.000
                            Lennard-Jones B  0.0000000    eV*Ang^n  
                            Exponent m        12          None
                            Exponent n         6          None
--------------------------------------------------------------------------------

********************************************************************************
*  Output for configuration   1                                                *
********************************************************************************


  Components of energy : 

--------------------------------------------------------------------------------
  Interatomic potentials     =         169.01233212 eV    
  Monopole - monopole (real) =          14.32064286 eV    
  Monopole - monopole (recip)=         -58.67322300 eV    
  Monopole - monopole (total)=         -44.35258013 eV    
--------------------------------------------------------------------------------
  Total lattice energy       =         124.65975199 eV    
--------------------------------------------------------------------------------
  Total lattice energy       =           12027.7605 kJ/(mole unit cells)
--------------------------------------------------------------------------------


  Number of variables =       39

  Maximum number of calculations  =          1000
  Maximum Hessian update interval =            10
  Maximum step size               =   1.000000000
  Maximum parameter tolerance     =   0.000010000
  Maximum function  tolerance     =   0.000010000
  Maximum gradient  tolerance     =   0.001000000
  Maximum gradient  component     =   0.010000000

  Symmetry not applied to optimisation

  Cell parameters to be optimised using strains

  Conjugate gradient optimiser to be used

  Lower half triangular hessian to be used

  Minimiser to switch to BFGS with exact hessian
  When gradient norm is less than     0.500000

  Start of bulk optimisation :

  Cycle:      0 Energy:       124.659752  Gnorm:     87.416939  CPU:    0.025
  Cycle:      1 Energy:        30.670386  Gnorm:     33.928734  CPU:    0.060
  Cycle:      2 Energy:       -45.892665  Gnorm:     17.233321  CPU:    0.107
  Cycle:      3 Energy:       -79.085744  Gnorm:      8.465743  CPU:    0.146
  Cycle:      4 Energy:      -102.192784  Gnorm:      8.578788  CPU:    0.182
  Cycle:      5 Energy:      -117.172629  Gnorm:      5.850043  CPU:    0.215
  Cycle:      6 Energy:      -124.841430  Gnorm:      2.916509  CPU:    0.242
  Cycle:      7 Energy:      -128.029738  Gnorm:      2.472987  CPU:    0.274
  Cycle:      8 Energy:      -130.078651  Gnorm:      2.076950  CPU:    0.301
  Cycle:      9 Energy:      -132.496059  Gnorm:      2.169671  CPU:    0.328
  Cycle:     10 Energy:      -133.737156  Gnorm:      1.353845  CPU:    0.351
  Cycle:     11 Energy:      -134.879246  Gnorm:      1.730459  CPU:    0.378
  Cycle:     12 Energy:      -137.385304  Gnorm:      1.808831  CPU:    0.406
  Cycle:     13 Energy:      -139.101604  Gnorm:      1.593783  CPU:    0.429
  Cycle:     14 Energy:      -140.417047  Gnorm:      2.194371  CPU:    0.453
  Cycle:     15 Energy:      -141.337556  Gnorm:      1.650583  CPU:    0.476
  Cycle:     16 Energy:      -143.246322  Gnorm:      1.159674  CPU:    0.505
  Cycle:     17 Energy:      -144.761191  Gnorm:      1.701518  CPU:    0.535
  Cycle:     18 Energy:      -145.438296  Gnorm:      1.208627  CPU:    0.559
  Cycle:     19 Energy:      -146.394966  Gnorm:      1.168733  CPU:    0.589
  Cycle:     20 Energy:      -146.738609  Gnorm:      0.744679  CPU:    0.614
  Cycle:     21 Energy:      -147.482135  Gnorm:      1.331361  CPU:    0.644
  Cycle:     22 Energy:      -147.809497  Gnorm:      1.036439  CPU:    0.675
  Cycle:     23 Energy:      -148.266850  Gnorm:      0.500660  CPU:    0.706
  Cycle:     24 Energy:      -148.379475  Gnorm:      0.546033  CPU:    0.737
  Cycle:     25 Energy:      -148.601891  Gnorm:      0.438729  CPU:    0.768
  ** Hessian calculated **
  Cycle:     26 Energy:      -149.063794  Gnorm:      0.315140  CPU:    0.842
  ** Hessian calculated **
  Cycle:     27 Energy:      -149.337322  Gnorm:      0.458829  CPU:    0.924
  ** Hessian calculated **
  Cycle:     28 Energy:      -149.472343  Gnorm:      0.375664  CPU:    0.984
  Cycle:     29 Energy:      -149.653554  Gnorm:      0.526830  CPU:    1.016
  Cycle:     30 Energy:      -150.163346  Gnorm:      0.881294  CPU:    1.055
  Cycle:     31 Energy:      -150.467879  Gnorm:      0.898434  CPU:    1.087
  Cycle:     32 Energy:      -151.157918  Gnorm:      0.987219  CPU:    1.130
  Cycle:     33 Energy:      -151.704714  Gnorm:      0.780108  CPU:    1.164
  Cycle:     34 Energy:      -152.105111  Gnorm:      0.590036  CPU:    1.197
  Cycle:     35 Energy:      -152.314477  Gnorm:      0.443566  CPU:    1.224
  Cycle:     36 Energy:      -152.481657  Gnorm:      0.443343  CPU:    1.250
  Cycle:     37 Energy:      -152.694312  Gnorm:      0.448441  CPU:    1.283
  ** Hessian calculated **
  Cycle:     38 Energy:      -152.863849  Gnorm:      0.494906  CPU:    1.353
  ** Hessian calculated **
  Cycle:     39 Energy:      -153.079080  Gnorm:      0.364010  CPU:    1.416
  Cycle:     40 Energy:      -153.266532  Gnorm:      0.369345  CPU:    1.450
  Cycle:     41 Energy:      -153.532011  Gnorm:      0.405710  CPU:    1.484
  Cycle:     42 Energy:      -153.728191  Gnorm:      0.264631  CPU:    1.512
  Cycle:     43 Energy:      -153.862163  Gnorm:      0.344542  CPU:    1.547
  Cycle:     44 Energy:      -153.987399  Gnorm:      0.255304  CPU:    1.582
  Cycle:     45 Energy:      -154.145428  Gnorm:      0.319374  CPU:    1.617
  Cycle:     46 Energy:      -154.244457  Gnorm:      0.280160  CPU:    1.646
  Cycle:     47 Energy:      -154.370729  Gnorm:      0.219911  CPU:    1.676
  Cycle:     48 Energy:      -154.441708  Gnorm:      0.198994  CPU:    1.713
  ** Hessian calculated **
  Cycle:     49 Energy:      -154.500855  Gnorm:      0.148485  CPU:    1.797
  ** Hessian calculated **
  Cycle:     50 Energy:      -154.666559  Gnorm:      0.115708  CPU:    1.902
  Cycle:     51 Energy:      -154.680308  Gnorm:      0.080106  CPU:    1.940
  Cycle:     52 Energy:      -154.686731  Gnorm:      0.022798  CPU:    1.978
  Cycle:     53 Energy:      -154.692927  Gnorm:      0.047228  CPU:    2.024
  Cycle:     54 Energy:      -154.694875  Gnorm:      0.043891  CPU:    2.062
  ** Hessian calculated **
  Cycle:     55 Energy:      -154.696494  Gnorm:      0.026911  CPU:    2.140
  Cycle:     56 Energy:      -154.697090  Gnorm:      0.022375  CPU:    2.178
  Cycle:     57 Energy:      -154.697925  Gnorm:      0.017552  CPU:    2.225
  Cycle:     58 Energy:      -154.698558  Gnorm:      0.022382  CPU:    2.271
  Cycle:     59 Energy:      -154.699400  Gnorm:      0.018756  CPU:    2.318
  Cycle:     60 Energy:      -154.700383  Gnorm:      0.024873  CPU:    2.365
  Cycle:     61 Energy:      -154.702390  Gnorm:      0.033043  CPU:    2.412
  Cycle:     62 Energy:      -154.707370  Gnorm:      0.068819  CPU:    2.468
  Cycle:     63 Energy:      -154.721532  Gnorm:      0.126947  CPU:    2.533
  Cycle:     64 Energy:      -154.725546  Gnorm:      0.172753  CPU:    2.571
  ** Hessian calculated **
  Cycle:     65 Energy:      -154.752210  Gnorm:      0.134945  CPU:    2.649
  Cycle:     66 Energy:      -154.773492  Gnorm:      0.123211  CPU:    2.696
  Cycle:     67 Energy:      -154.799697  Gnorm:      0.132531  CPU:    2.743
  Cycle:     68 Energy:      -154.822358  Gnorm:      0.140827  CPU:    2.790
  Cycle:     69 Energy:      -154.869929  Gnorm:      0.187357  CPU:    2.836
  Cycle:     70 Energy:      -154.954422  Gnorm:      0.189176  CPU:    2.882
  Cycle:     71 Energy:      -155.014811  Gnorm:      0.207105  CPU:    2.918
  Cycle:     72 Energy:      -155.071421  Gnorm:      0.151772  CPU:    2.955
  Cycle:     73 Energy:      -155.148334  Gnorm:      0.179462  CPU:    3.001
  Cycle:     74 Energy:      -155.183207  Gnorm:      0.136588  CPU:    3.038
  ** Hessian calculated **
  Cycle:     75 Energy:      -155.200806  Gnorm:      0.087374  CPU:    3.116
  Cycle:     76 Energy:      -155.214185  Gnorm:      0.079471  CPU:    3.162
  Cycle:     77 Energy:      -155.224418  Gnorm:      0.110957  CPU:    3.208
  Cycle:     78 Energy:      -155.234921  Gnorm:      0.072598  CPU:    3.253
  Cycle:     79 Energy:      -155.248297  Gnorm:      0.079201  CPU:    3.299
  Cycle:     80 Energy:      -155.263160  Gnorm:      0.115363  CPU:    3.345
  Cycle:     81 Energy:      -155.288043  Gnorm:      0.129543  CPU:    3.391
  Cycle:     82 Energy:      -155.321134  Gnorm:      0.165766  CPU:    3.437
  Cycle:     83 Energy:      -155.352821  Gnorm:      0.133904  CPU:    3.475
  Cycle:     84 Energy:      -155.377942  Gnorm:      0.078133  CPU:    3.512
  ** Hessian calculated **
  Cycle:     85 Energy:      -155.388331  Gnorm:      0.070379  CPU:    3.599
  Cycle:     86 Energy:      -155.395898  Gnorm:      0.075524  CPU:    3.645
  Cycle:     87 Energy:      -155.401925  Gnorm:      0.075838  CPU:    3.683
  Cycle:     88 Energy:      -155.409903  Gnorm:      0.078491  CPU:    3.729
  Cycle:     89 Energy:      -155.419282  Gnorm:      0.070287  CPU:    3.775
  Cycle:     90 Energy:      -155.426018  Gnorm:      0.073208  CPU:    3.813
  Cycle:     91 Energy:      -155.437826  Gnorm:      0.075585  CPU:    3.859
  Cycle:     92 Energy:      -155.448110  Gnorm:      0.052735  CPU:    3.896
  Cycle:     93 Energy:      -155.450817  Gnorm:      0.039138  CPU:    3.934
  Cycle:     94 Energy:      -155.453124  Gnorm:      0.036662  CPU:    3.971
  ** Hessian calculated **
  Cycle:     95 Energy:      -155.470291  Gnorm:      0.035829  CPU:    4.084
  Cycle:     96 Energy:      -155.496877  Gnorm:      0.046377  CPU:    4.148
  Cycle:     97 Energy:      -155.528916  Gnorm:      0.091150  CPU:    4.203
  ** Hessian calculated **
  Cycle:     98 Energy:      -155.566190  Gnorm:      0.096638  CPU:    4.297
  Cycle:     99 Energy:      -155.576166  Gnorm:      0.014371  CPU:    4.343
  Cycle:    100 Energy:      -155.577007  Gnorm:      0.005884  CPU:    4.380
  Cycle:    101 Energy:      -155.577169  Gnorm:      0.004092  CPU:    4.426
  Cycle:    102 Energy:      -155.577190  Gnorm:      0.001011  CPU:    4.464


  **** Optimisation achieved ****


  Final energy =    -155.57719439 eV      
  Final Gnorm  =       0.00015376

  Components of energy : 

--------------------------------------------------------------------------------
  Interatomic potentials     =          12.32482455 eV    
  Monopole - monopole (real) =         -69.07573380 eV    
  Monopole - monopole (recip)=         -98.82628514 eV    
  Monopole - monopole (total)=        -167.90201894 eV    
--------------------------------------------------------------------------------
  Total lattice energy       =        -155.57719439 eV    
--------------------------------------------------------------------------------
  Total lattice energy       =          -15010.8210 kJ/(mole unit cells)
--------------------------------------------------------------------------------

  Final fractional coordinates of atoms :

--------------------------------------------------------------------------------
   No.  Atomic        x           y          z          Radius
        Label       (Frac)      (Frac)     (Frac)       (Angs) 
--------------------------------------------------------------------------------
     1  Ti    c     0.000000    0.175254    0.000000    0.000000
     2  Ti    c     0.583321    0.366217    0.250091    0.000000
     3  Ti    c     0.219752    0.710338    0.516092    0.000000
     4  Ti    c     0.806298    0.096640    0.577728    0.000000
     5  O     c     0.685676    0.491358    0.554340    0.000000
     6  O     c     0.780222    0.914024    0.240241    0.000000
     7  O     c     0.455289    0.766025    0.227235    0.000000
     8  O     c     0.061406    0.381134    0.313189    0.000000
     9  O     c     0.118644    0.714582    0.894456    0.000000
    10  O     c     0.757033    0.275298    0.928438    0.000000
    11  O     c     0.001999    0.970858    0.650820    0.000000
    12  O     c     0.339422    0.303543    0.530555    0.000000
--------------------------------------------------------------------------------

  Final Cartesian lattice vectors (Angstroms) :

        7.799551   -0.859124    0.877878
       -0.691702    3.316422   -0.342320
        1.306915   -0.551611    5.604741


  Final cell parameters and derivatives :

--------------------------------------------------------------------------------
       a            7.895680 Angstrom     dE/de1(xx)    -0.000680 eV/strain
       b            3.405038 Angstrom     dE/de2(yy)    -0.000285 eV/strain
       c            5.781473 Angstrom     dE/de3(zz)    -0.000070 eV/strain
       alpha      103.668710 Degrees      dE/de4(yz)     0.000145 eV/strain
       beta        70.033701 Degrees      dE/de5(xz)     0.000459 eV/strain
       gamma      108.531314 Degrees      dE/de6(xy)    -0.000011 eV/strain
--------------------------------------------------------------------------------

  Primitive cell volume =           137.086520 Angs**3

  Density of cell =      3.870431 g/cm**3

  Non-primitive cell volume =           137.086520 Angs**3


  Final internal derivatives :

--------------------------------------------------------------------------------
   No.  Atomic          a             b             c           Radius
        Label          (eV)          (eV)          (eV)        (eV/Angs)
--------------------------------------------------------------------------------
      1 Ti    c       0.000000      0.000000      0.000000      0.000000
      2 Ti    c      -0.002674      0.000029     -0.001127      0.000000
      3 Ti    c       0.000470     -0.000016     -0.000068      0.000000
      4 Ti    c      -0.000548     -0.000217     -0.000306      0.000000
      5 O     c       0.002509     -0.000626      0.002104      0.000000
      6 O     c      -0.001660     -0.000252     -0.000891      0.000000
      7 O     c       0.002479     -0.000021      0.000535      0.000000
      8 O     c       0.000366     -0.000165     -0.000128      0.000000
      9 O     c      -0.001423      0.000477     -0.000833      0.000000
     10 O     c      -0.000358      0.000599     -0.000258      0.000000
     11 O     c      -0.000952      0.000052     -0.000394      0.000000
     12 O     c       0.000035     -0.000004     -0.000433      0.000000
--------------------------------------------------------------------------------
  Maximum abs         0.002674      0.000626      0.002104      0.000000
--------------------------------------------------------------------------------


  Time to end of optimisation =       4.5101 seconds


  Peak dynamic memory used =       1.84 MB 


  Timing analysis for GULP :

--------------------------------------------------------------------------------
  Task / Subroutine                                          Time (Seconds)
--------------------------------------------------------------------------------
  Calculation of reciprocal space energy and derivatives          0.1422
  Calculation of real space energy and derivatives                4.3344
  Calculation and manipulation of Hessian matrix                  0.0014
  Calculation of matrix inversion                                 0.0025
  Global summation overhead                                       0.0007
--------------------------------------------------------------------------------
  Total CPU time                                                  4.5101
--------------------------------------------------------------------------------


  Job Finished at 11:05.48 29th May        2024                               

