********************************************************************************
*                       GENERAL UTILITY LATTICE PROGRAM                        *
*                                 Julian Gale                                  *
*                       Curtin Institute for Computation                       *
*                    School of Molecular and Life Sciences                     *
*                    Curtin University, Western Australia                      *
********************************************************************************
* Version = 6.0.0 * Last modified =  12th July 2021                            *
********************************************************************************
*  optimise     - perform optimisation run                                     *
*  conp         - constant pressure calculation                                *
*  conjugate    - use conjugate gradients minimiser                            *
********************************************************************************

  Job Started  at 11:07.16 29th May        2024                               

  Number of CPUs =     1


  Total number of configurations input =      1

********************************************************************************
*  Input for Configuration =   1                                               *
********************************************************************************

  Formula = Ti4O8                                                       

  Number of irreducible atoms/shells =      12


  Total number atoms/shells =      12

  Dimensionality = 3               :  Bulk   



  Cartesian lattice vectors (Angstroms) :

        7.680299    1.660115   -3.750403
        0.822015    2.255575   -0.072519
       -3.016179    1.168387   10.159113

  Cell parameters (Angstroms/Degrees):

  a =       8.7068    alpha =  91.2994
  b =       2.4018    beta  = 129.7243
  c =      10.6616    gamma =  60.3983

  Initial cell volume =         134.024851 Angs**3

  Temperature of configuration =   0.00     K 

  Pressure of configuration =         0.000 GPa 

  Fractional coordinates of asymmetric unit :

--------------------------------------------------------------------------------
   No.  Atomic       x           y          z         Charge      Occupancy
        Label      (Frac)      (Frac)     (Frac)        (e)         (Frac)  
--------------------------------------------------------------------------------
      1 Ti    c    0.546957    0.582286    0.092322     2.19600    1.000000    
      2 Ti    c    0.361753 *  0.211906 *  0.277509 *   2.19600    1.000000    
      3 Ti    c    0.685034 *  0.117717 *  0.600800 *   2.19600    1.000000    
      4 Ti    c    0.129462 *  0.488097 *  0.415603 *   2.19600    1.000000    
      5 O     c    0.406191 *  0.656741 *  0.638643 *  -1.09800    1.000000    
      6 O     c    0.085020 *  0.043262 *  0.054480 *  -1.09800    1.000000    
      7 O     c    0.601335 *  0.413642 *  0.556356 *  -1.09800    1.000000    
      8 O     c    0.630669 *  0.286377 *  0.136780 *  -1.09800    1.000000    
      9 O     c    0.167307 *  0.286355 *  0.492709 *  -1.09800    1.000000    
     10 O     c    0.323910 *  0.413651 *  0.200400 *  -1.09800    1.000000    
     11 O     c    0.469837 *  0.043271 *  0.331908 *  -1.09800    1.000000    
     12 O     c    0.021352 *  0.656738 *  0.361220 *  -1.09800    1.000000    
--------------------------------------------------------------------------------



********************************************************************************
*  General input information                                                   *
********************************************************************************

  Species output for all configurations : 

--------------------------------------------------------------------------------
  Species    Type    Atomic    Atomic    Charge       Radii (Angs)     Library
                     Number     Mass       (e)     Cova   Ionic  VDW   Symbol
--------------------------------------------------------------------------------
    Ti       Core       22      47.88   2.196000   1.470  0.000  2.190          
    O        Core        8      16.00  -1.098000   0.730  0.000  1.360          
--------------------------------------------------------------------------------


  Lattice summation method               =    Ewald          (3-D)
                                         =    Parry          (2-D)
                                         =    Saunders et al (1-D)
  Accuracy factor for lattice sums       =   12.000


  Analytic derivatives to be used

  Time limit = Infinity

  Maximum range for interatomic potentials =    100000.000000 Angstroms

  General interatomic potentials :

--------------------------------------------------------------------------------
Atom  Types   Potential      Parameter       Value         Units   Cutoffs(Ang)
  1     2                                                            Min /  Max 
--------------------------------------------------------------------------------
Ti   c Ti   c Buckingham    Buckingham A     31120.100    eV        0.000 15.000
                            Buckingham rho  0.15400000    Ang       
                            Buckingham C     5.2500000    eV*Ang^6  
--------------------------------------------------------------------------------
O    c O    c Buckingham    Buckingham A     11782.700    eV        0.000 15.000
                            Buckingham rho  0.23400000    Ang       
                            Buckingham C     30.220000    eV*Ang^6  
--------------------------------------------------------------------------------
O    c Ti   c Buckingham    Buckingham A     16957.500    eV        0.000 15.000
                            Buckingham rho  0.19400000    Ang       
                            Buckingham C     12.590000    eV*Ang^6  
--------------------------------------------------------------------------------
Ti   c Ti   c Lennard       Lennard-Jones A  1.0000000    eV*Ang^m  0.000 15.000
                            Lennard-Jones B  0.0000000    eV*Ang^n  
                            Exponent m        12          None
                            Exponent n         6          None
--------------------------------------------------------------------------------
O    c O    c Lennard       Lennard-Jones A  1.0000000    eV*Ang^m  0.000 15.000
                            Lennard-Jones B  0.0000000    eV*Ang^n  
                            Exponent m        12          None
                            Exponent n         6          None
--------------------------------------------------------------------------------
O    c Ti   c Lennard       Lennard-Jones A  1.0000000    eV*Ang^m  0.000 15.000
                            Lennard-Jones B  0.0000000    eV*Ang^n  
                            Exponent m        12          None
                            Exponent n         6          None
--------------------------------------------------------------------------------

********************************************************************************
*  Output for configuration   1                                                *
********************************************************************************


  Components of energy : 

--------------------------------------------------------------------------------
  Interatomic potentials     =        6692.93105688 eV    
  Monopole - monopole (real) =        -220.15972965 eV    
  Monopole - monopole (recip)=         -93.88034611 eV    
  Monopole - monopole (total)=        -314.04007576 eV    
--------------------------------------------------------------------------------
  Total lattice energy       =        6378.89098112 eV    
--------------------------------------------------------------------------------
  Total lattice energy       =          615465.4694 kJ/(mole unit cells)
--------------------------------------------------------------------------------


  Number of variables =       39

  Maximum number of calculations  =          1000
  Maximum Hessian update interval =            10
  Maximum step size               =   1.000000000
  Maximum parameter tolerance     =   0.000010000
  Maximum function  tolerance     =   0.000010000
  Maximum gradient  tolerance     =   0.001000000
  Maximum gradient  component     =   0.010000000

  Symmetry not applied to optimisation

  Cell parameters to be optimised using strains

  Conjugate gradient optimiser to be used

  Lower half triangular hessian to be used

  Minimiser to switch to BFGS with exact hessian
  When gradient norm is less than     0.500000

  Start of bulk optimisation :

  Cycle:      0 Energy:      6378.890981  Gnorm:   6324.843310  CPU:    0.029
  Cycle:      1 Energy:       453.149818  Gnorm:    187.475354  CPU:    0.107
  Cycle:      2 Energy:       -74.943018  Gnorm:     30.825560  CPU:    0.154
  Cycle:      3 Energy:       -90.845627  Gnorm:     15.708011  CPU:    0.194
  Cycle:      4 Energy:      -109.787345  Gnorm:      7.850048  CPU:    0.234
  Cycle:      5 Energy:      -119.400476  Gnorm:      4.678455  CPU:    0.274
  Cycle:      6 Energy:      -125.678109  Gnorm:      4.972712  CPU:    0.312
  Cycle:      7 Energy:      -128.638605  Gnorm:      3.303781  CPU:    0.343
  Cycle:      8 Energy:      -131.470150  Gnorm:      4.010165  CPU:    0.381
  Cycle:      9 Energy:      -135.675115  Gnorm:      3.955901  CPU:    0.417
  Cycle:     10 Energy:      -137.532334  Gnorm:      2.210259  CPU:    0.446
  Cycle:     11 Energy:      -138.585106  Gnorm:      2.058428  CPU:    0.482
  Cycle:     12 Energy:      -140.620002  Gnorm:      2.465324  CPU:    0.519
  Cycle:     13 Energy:      -141.938728  Gnorm:      1.923275  CPU:    0.549
  Cycle:     14 Energy:      -143.422413  Gnorm:      2.398137  CPU:    0.586
  Cycle:     15 Energy:      -144.416785  Gnorm:      1.593369  CPU:    0.616
  Cycle:     16 Energy:      -145.149839  Gnorm:      1.214299  CPU:    0.653
  Cycle:     17 Energy:      -145.651080  Gnorm:      0.858273  CPU:    0.690
  Cycle:     18 Energy:      -146.136499  Gnorm:      1.141597  CPU:    0.727
  Cycle:     19 Energy:      -146.793577  Gnorm:      1.120062  CPU:    0.765
  Cycle:     20 Energy:      -147.094299  Gnorm:      0.729156  CPU:    0.796
  Cycle:     21 Energy:      -147.429701  Gnorm:      0.863380  CPU:    0.834
  Cycle:     22 Energy:      -147.805011  Gnorm:      0.778750  CPU:    0.873
  Cycle:     23 Energy:      -148.145480  Gnorm:      0.896392  CPU:    0.911
  Cycle:     24 Energy:      -148.407775  Gnorm:      0.851626  CPU:    0.943
  Cycle:     25 Energy:      -148.692673  Gnorm:      0.453753  CPU:    0.981
  ** Hessian calculated **
  Cycle:     26 Energy:      -148.909654  Gnorm:      0.677625  CPU:    1.046
  Cycle:     27 Energy:      -149.232482  Gnorm:      0.683405  CPU:    1.086
  Cycle:     28 Energy:      -149.444231  Gnorm:      0.622890  CPU:    1.118
  Cycle:     29 Energy:      -149.697629  Gnorm:      0.547220  CPU:    1.159
  Cycle:     30 Energy:      -150.033866  Gnorm:      0.824018  CPU:    1.201
  Cycle:     31 Energy:      -150.748762  Gnorm:      1.078129  CPU:    1.261
  Cycle:     32 Energy:      -151.003923  Gnorm:      1.380373  CPU:    1.298
  Cycle:     33 Energy:      -151.937712  Gnorm:      1.145869  CPU:    1.341
  Cycle:     34 Energy:      -152.994011  Gnorm:      0.816316  CPU:    1.385
  Cycle:     35 Energy:      -153.209754  Gnorm:      0.690460  CPU:    1.430
  ** Hessian calculated **
  Cycle:     36 Energy:      -153.734264  Gnorm:      0.505610  CPU:    1.520
  ** Hessian calculated **
  Cycle:     37 Energy:      -153.836067  Gnorm:      0.513403  CPU:    1.592
  Cycle:     38 Energy:      -153.959690  Gnorm:      0.423381  CPU:    1.636
  Cycle:     39 Energy:      -154.084315  Gnorm:      0.451861  CPU:    1.680
  Cycle:     40 Energy:      -154.196161  Gnorm:      0.416914  CPU:    1.724
  Cycle:     41 Energy:      -154.274338  Gnorm:      0.287606  CPU:    1.759
  Cycle:     42 Energy:      -154.376753  Gnorm:      0.421125  CPU:    1.803
  Cycle:     43 Energy:      -154.443378  Gnorm:      0.341310  CPU:    1.839
  Cycle:     44 Energy:      -154.513929  Gnorm:      0.261136  CPU:    1.882
  Cycle:     45 Energy:      -154.569985  Gnorm:      0.278857  CPU:    1.926
  Cycle:     46 Energy:      -154.622129  Gnorm:      0.295883  CPU:    1.969
  ** Hessian calculated **
  Cycle:     47 Energy:      -154.656279  Gnorm:      0.207798  CPU:    2.041
  Cycle:     48 Energy:      -154.690126  Gnorm:      0.211084  CPU:    2.085
  Cycle:     49 Energy:      -154.726928  Gnorm:      0.272041  CPU:    2.129
  Cycle:     50 Energy:      -154.775317  Gnorm:      0.304083  CPU:    2.173
  Cycle:     51 Energy:      -154.827487  Gnorm:      0.271062  CPU:    2.216
  Cycle:     52 Energy:      -154.869160  Gnorm:      0.255262  CPU:    2.261
  Cycle:     53 Energy:      -154.911991  Gnorm:      0.326567  CPU:    2.305
  Cycle:     54 Energy:      -154.976841  Gnorm:      0.355561  CPU:    2.349
  Cycle:     55 Energy:      -155.077667  Gnorm:      0.363120  CPU:    2.385
  Cycle:     56 Energy:      -155.145153  Gnorm:      0.259168  CPU:    2.421
  ** Hessian calculated **
  Cycle:     57 Energy:      -155.182183  Gnorm:      0.201005  CPU:    2.494
  Cycle:     58 Energy:      -155.203476  Gnorm:      0.204179  CPU:    2.538
  Cycle:     59 Energy:      -155.230292  Gnorm:      0.218253  CPU:    2.583
  Cycle:     60 Energy:      -155.263389  Gnorm:      0.235650  CPU:    2.628
  Cycle:     61 Energy:      -155.303559  Gnorm:      0.243100  CPU:    2.672
  Cycle:     62 Energy:      -155.334806  Gnorm:      0.149685  CPU:    2.708
  Cycle:     63 Energy:      -155.349792  Gnorm:      0.175500  CPU:    2.745
  Cycle:     64 Energy:      -155.368541  Gnorm:      0.146917  CPU:    2.790
  Cycle:     65 Energy:      -155.388741  Gnorm:      0.184754  CPU:    2.834
  Cycle:     66 Energy:      -155.415007  Gnorm:      0.217438  CPU:    2.879
  ** Hessian calculated **
  Cycle:     67 Energy:      -155.486034  Gnorm:      0.158347  CPU:    2.970
  ** Hessian calculated **
  Cycle:     68 Energy:      -155.498536  Gnorm:      0.100619  CPU:    3.046
  Cycle:     69 Energy:      -155.502750  Gnorm:      0.077519  CPU:    3.083
  Cycle:     70 Energy:      -155.505912  Gnorm:      0.062548  CPU:    3.128
  Cycle:     71 Energy:      -155.509199  Gnorm:      0.051713  CPU:    3.173
  Cycle:     72 Energy:      -155.511128  Gnorm:      0.063121  CPU:    3.209
  Cycle:     73 Energy:      -155.515074  Gnorm:      0.067404  CPU:    3.254
  Cycle:     74 Energy:      -155.517246  Gnorm:      0.056128  CPU:    3.290
  Cycle:     75 Energy:      -155.519497  Gnorm:      0.056486  CPU:    3.335
  Cycle:     76 Energy:      -155.522439  Gnorm:      0.089292  CPU:    3.380
  Cycle:     77 Energy:      -155.529690  Gnorm:      0.090082  CPU:    3.425
  ** Hessian calculated **
  Cycle:     78 Energy:      -155.534401  Gnorm:      0.072248  CPU:    3.500
  Cycle:     79 Energy:      -155.536857  Gnorm:      0.060225  CPU:    3.537
  Cycle:     80 Energy:      -155.539851  Gnorm:      0.068709  CPU:    3.582
  Cycle:     81 Energy:      -155.542711  Gnorm:      0.067041  CPU:    3.628
  Cycle:     82 Energy:      -155.546863  Gnorm:      0.066681  CPU:    3.674
  Cycle:     83 Energy:      -155.549550  Gnorm:      0.065982  CPU:    3.711
  Cycle:     84 Energy:      -155.553830  Gnorm:      0.055011  CPU:    3.757
  Cycle:     85 Energy:      -155.557663  Gnorm:      0.092650  CPU:    3.803
  Cycle:     86 Energy:      -155.563793  Gnorm:      0.107664  CPU:    3.849
  Cycle:     87 Energy:      -155.579038  Gnorm:      0.145169  CPU:    3.895
  ** Hessian calculated **
  Cycle:     88 Energy:      -155.591014  Gnorm:      0.102513  CPU:    3.970
  Cycle:     89 Energy:      -155.598571  Gnorm:      0.114070  CPU:    4.015
  Cycle:     90 Energy:      -155.604701  Gnorm:      0.070153  CPU:    4.061
  Cycle:     91 Energy:      -155.611385  Gnorm:      0.080130  CPU:    4.107
  Cycle:     92 Energy:      -155.616304  Gnorm:      0.094131  CPU:    4.144
  Cycle:     93 Energy:      -155.620991  Gnorm:      0.068264  CPU:    4.190
  Cycle:     94 Energy:      -155.625853  Gnorm:      0.087360  CPU:    4.236
  Cycle:     95 Energy:      -155.633181  Gnorm:      0.091766  CPU:    4.282
  Cycle:     96 Energy:      -155.641255  Gnorm:      0.105065  CPU:    4.330
  Cycle:     97 Energy:      -155.655034  Gnorm:      0.195966  CPU:    4.376
  ** Hessian calculated **
  Cycle:     98 Energy:      -155.665687  Gnorm:      0.105940  CPU:    4.451
  Cycle:     99 Energy:      -155.674070  Gnorm:      0.116063  CPU:    4.497
  Cycle:    100 Energy:      -155.681823  Gnorm:      0.107286  CPU:    4.542
  Cycle:    101 Energy:      -155.689035  Gnorm:      0.083006  CPU:    4.589
  Cycle:    102 Energy:      -155.694325  Gnorm:      0.071941  CPU:    4.626
  Cycle:    103 Energy:      -155.701328  Gnorm:      0.091276  CPU:    4.672
  Cycle:    104 Energy:      -155.709991  Gnorm:      0.124197  CPU:    4.718
  Cycle:    105 Energy:      -155.719705  Gnorm:      0.142051  CPU:    4.763
  Cycle:    106 Energy:      -155.736062  Gnorm:      0.132595  CPU:    4.808
  Cycle:    107 Energy:      -155.767944  Gnorm:      0.230690  CPU:    4.853
  ** Hessian calculated **
  Cycle:    108 Energy:      -155.797386  Gnorm:      0.185949  CPU:    4.928
  Cycle:    109 Energy:      -155.822070  Gnorm:      0.213491  CPU:    4.973
  Cycle:    110 Energy:      -155.857216  Gnorm:      0.180196  CPU:    5.018
  Cycle:    111 Energy:      -155.892610  Gnorm:      0.218504  CPU:    5.063
  Cycle:    112 Energy:      -155.918510  Gnorm:      0.226460  CPU:    5.101
  Cycle:    113 Energy:      -155.969935  Gnorm:      0.224900  CPU:    5.156
  Cycle:    114 Energy:      -156.076861  Gnorm:      0.539816  CPU:    5.218
  Cycle:    115 Energy:      -156.184162  Gnorm:      0.578783  CPU:    5.269
  Cycle:    116 Energy:      -156.318469  Gnorm:      0.440618  CPU:    5.318
  Cycle:    117 Energy:      -156.510007  Gnorm:      0.515705  CPU:    5.379
  ** Hessian calculated **
  Cycle:    118 Energy:      -157.039219  Gnorm:      0.461272  CPU:    5.480
  Cycle:    119 Energy:      -157.282136  Gnorm:      0.174744  CPU:    5.530
  Cycle:    120 Energy:      -157.319385  Gnorm:      0.112439  CPU:    5.580
  Cycle:    121 Energy:      -157.339644  Gnorm:      0.052857  CPU:    5.643
  Cycle:    122 Energy:      -157.342722  Gnorm:      0.018506  CPU:    5.704
  Cycle:    123 Energy:      -157.343324  Gnorm:      0.008889  CPU:    5.754
  Cycle:    124 Energy:      -157.343401  Gnorm:      0.003687  CPU:    5.817
  Cycle:    125 Energy:      -157.343409  Gnorm:      0.001991  CPU:    5.869


  **** Optimisation achieved ****


  Final energy =    -157.34341074 eV      
  Final Gnorm  =       0.00047800

  Components of energy : 

--------------------------------------------------------------------------------
  Interatomic potentials     =          12.88988501 eV    
  Monopole - monopole (real) =         -72.84692217 eV    
  Monopole - monopole (recip)=         -97.38637358 eV    
  Monopole - monopole (total)=        -170.23329575 eV    
--------------------------------------------------------------------------------
  Total lattice energy       =        -157.34341074 eV    
--------------------------------------------------------------------------------
  Total lattice energy       =          -15181.2339 kJ/(mole unit cells)
--------------------------------------------------------------------------------

  Final fractional coordinates of atoms :

--------------------------------------------------------------------------------
   No.  Atomic        x           y          z          Radius
        Label       (Frac)      (Frac)     (Frac)       (Angs) 
--------------------------------------------------------------------------------
     1  Ti    c     0.546957    0.582286    0.092322    0.000000
     2  Ti    c     0.337436    0.100904    0.683623    0.000000
     3  Ti    c     0.935540    0.202745    0.685697    0.000000
     4  Ti    c     0.145092    0.684065    0.094415    0.000000
     5  O     c     0.269813    0.697352    0.693607    0.000000
     6  O     c     0.212701    0.087641    0.084424    0.000000
     7  O     c     0.747138    0.443404    0.769592    0.000000
     8  O     c     0.735375    0.341593    0.008439    0.000000
     9  O     c     0.079807    0.454648    0.749074    0.000000
    10  O     c     0.402706    0.330345    0.028956    0.000000
    11  O     c     0.955961    0.821944    0.385986    0.000000
    12  O     c     0.526492    0.963147    0.392050    0.000000
--------------------------------------------------------------------------------

  Final Cartesian lattice vectors (Angstroms) :

        6.706636    3.755406   -3.216596
        1.312896    3.500617    0.271419
       -2.187641    2.063989    9.844325


  Final cell parameters and derivatives :

--------------------------------------------------------------------------------
       a            8.332379 Angstrom     dE/de1(xx)    -0.003102 eV/strain
       b            3.748557 Angstrom     dE/de2(yy)    -0.001167 eV/strain
       c           10.293520 Angstrom     dE/de3(zz)     0.000946 eV/strain
       alpha       79.510091 Degrees      dE/de4(yz)    -0.000680 eV/strain
       beta       116.735850 Degrees      dE/de5(xz)     0.001751 eV/strain
       gamma       47.558062 Degrees      dE/de6(xy)     0.000000 eV/strain
--------------------------------------------------------------------------------

  Primitive cell volume =           143.245522 Angs**3

  Density of cell =      3.704017 g/cm**3

  Non-primitive cell volume =           143.245522 Angs**3


  Final internal derivatives :

--------------------------------------------------------------------------------
   No.  Atomic          a             b             c           Radius
        Label          (eV)          (eV)          (eV)        (eV/Angs)
--------------------------------------------------------------------------------
      1 Ti    c       0.000000      0.000000      0.000000      0.000000
      2 Ti    c       0.001532     -0.001059     -0.001392      0.000000
      3 Ti    c      -0.002579      0.001210      0.001775      0.000000
      4 Ti    c       0.002686      0.000659     -0.001273      0.000000
      5 O     c      -0.003865     -0.001102      0.001751      0.000000
      6 O     c       0.005850      0.001195     -0.004574      0.000000
      7 O     c       0.000222      0.000150     -0.001613      0.000000
      8 O     c      -0.002823     -0.000059      0.002716      0.000000
      9 O     c       0.006174      0.001376     -0.002777      0.000000
     10 O     c      -0.007272     -0.003072      0.000026      0.000000
     11 O     c      -0.002607      0.000434      0.007701      0.000000
     12 O     c      -0.000642     -0.000072      0.005967      0.000000
--------------------------------------------------------------------------------
  Maximum abs         0.007272      0.003072      0.007701      0.000000
--------------------------------------------------------------------------------


  Time to end of optimisation =       5.9323 seconds


  Peak dynamic memory used =       1.84 MB 


  Timing analysis for GULP :

--------------------------------------------------------------------------------
  Task / Subroutine                                          Time (Seconds)
--------------------------------------------------------------------------------
  Calculation of reciprocal space energy and derivatives          0.1676
  Calculation of real space energy and derivatives                5.7279
  Calculation and manipulation of Hessian matrix                  0.0013
  Calculation of matrix inversion                                 0.0023
  Global summation overhead                                       0.0008
--------------------------------------------------------------------------------
  Total CPU time                                                  5.9324
--------------------------------------------------------------------------------


  Job Finished at 11:07.22 29th May        2024                               

