********************************************************************************
*                       GENERAL UTILITY LATTICE PROGRAM                        *
*                                 Julian Gale                                  *
*                       Curtin Institute for Computation                       *
*                    School of Molecular and Life Sciences                     *
*                    Curtin University, Western Australia                      *
********************************************************************************
* Version = 6.0.0 * Last modified =  12th July 2021                            *
********************************************************************************
*  optimise     - perform optimisation run                                     *
*  conp         - constant pressure calculation                                *
*  conjugate    - use conjugate gradients minimiser                            *
********************************************************************************

  Job Started  at 11:07.22 29th May        2024                               

  Number of CPUs =     1


  Total number of configurations input =      1

********************************************************************************
*  Input for Configuration =   1                                               *
********************************************************************************

  Formula = Ti4O8                                                       

  Number of irreducible atoms/shells =      12


  Total number atoms/shells =      12

  Dimensionality = 3               :  Bulk   



  Cartesian lattice vectors (Angstroms) :

        7.041749    0.027522    1.785557
       -0.033214    6.565663    0.029753
        0.599074   -0.010796    3.050625

  Cell parameters (Angstroms/Degrees):

  a =       7.2647    alpha =  90.0001
  b =       6.5658    beta  =  64.6625
  c =       3.1089    gamma =  90.0001

  Initial cell volume =         134.024851 Angs**3

  Temperature of configuration =   0.00     K 

  Pressure of configuration =         0.000 GPa 

  Fractional coordinates of asymmetric unit :

--------------------------------------------------------------------------------
   No.  Atomic       x           y          z         Charge      Occupancy
        Label      (Frac)      (Frac)     (Frac)        (e)         (Frac)  
--------------------------------------------------------------------------------
      1 Ti    c    0.569246    0.140008    0.282654     2.19600    1.000000    
      2 Ti    c    0.759616 *  0.814248 *  0.576154 *   2.19600    1.000000    
      3 Ti    c    0.759616 *  0.623878 *  0.092283 *   2.19600    1.000000    
      4 Ti    c    0.275746 *  0.623880 *  0.092283 *   2.19600    1.000000    
      5 O     c    0.466115 *  0.623879 *  0.385786 *  -1.09800    1.000000    
      6 O     c    0.275744 *  0.140010 *  0.576155 *  -1.09800    1.000000    
      7 O     c    0.759616 *  0.433510 *  0.576154 *  -1.09800    1.000000    
      8 O     c    0.275744 *  0.330378 *  0.092286 *  -1.09800    1.000000    
      9 O     c    0.275745 *  0.917381 *  0.092282 *  -1.09800    1.000000    
     10 O     c    0.949984 *  0.140008 *  0.869658 *  -1.09800    1.000000    
     11 O     c    0.085376 *  0.623879 *  0.766522 *  -1.09800    1.000000    
     12 O     c    0.759615 *  0.140008 *  0.576156 *  -1.09800    1.000000    
--------------------------------------------------------------------------------



********************************************************************************
*  General input information                                                   *
********************************************************************************

  Species output for all configurations : 

--------------------------------------------------------------------------------
  Species    Type    Atomic    Atomic    Charge       Radii (Angs)     Library
                     Number     Mass       (e)     Cova   Ionic  VDW   Symbol
--------------------------------------------------------------------------------
    Ti       Core       22      47.88   2.196000   1.470  0.000  2.190          
    O        Core        8      16.00  -1.098000   0.730  0.000  1.360          
--------------------------------------------------------------------------------


  Lattice summation method               =    Ewald          (3-D)
                                         =    Parry          (2-D)
                                         =    Saunders et al (1-D)
  Accuracy factor for lattice sums       =   12.000


  Analytic derivatives to be used

  Time limit = Infinity

  Maximum range for interatomic potentials =    100000.000000 Angstroms

  General interatomic potentials :

--------------------------------------------------------------------------------
Atom  Types   Potential      Parameter       Value         Units   Cutoffs(Ang)
  1     2                                                            Min /  Max 
--------------------------------------------------------------------------------
Ti   c Ti   c Buckingham    Buckingham A     31120.100    eV        0.000 15.000
                            Buckingham rho  0.15400000    Ang       
                            Buckingham C     5.2500000    eV*Ang^6  
--------------------------------------------------------------------------------
O    c O    c Buckingham    Buckingham A     11782.700    eV        0.000 15.000
                            Buckingham rho  0.23400000    Ang       
                            Buckingham C     30.220000    eV*Ang^6  
--------------------------------------------------------------------------------
O    c Ti   c Buckingham    Buckingham A     16957.500    eV        0.000 15.000
                            Buckingham rho  0.19400000    Ang       
                            Buckingham C     12.590000    eV*Ang^6  
--------------------------------------------------------------------------------
Ti   c Ti   c Lennard       Lennard-Jones A  1.0000000    eV*Ang^m  0.000 15.000
                            Lennard-Jones B  0.0000000    eV*Ang^n  
                            Exponent m        12          None
                            Exponent n         6          None
--------------------------------------------------------------------------------
O    c O    c Lennard       Lennard-Jones A  1.0000000    eV*Ang^m  0.000 15.000
                            Lennard-Jones B  0.0000000    eV*Ang^n  
                            Exponent m        12          None
                            Exponent n         6          None
--------------------------------------------------------------------------------
O    c Ti   c Lennard       Lennard-Jones A  1.0000000    eV*Ang^m  0.000 15.000
                            Lennard-Jones B  0.0000000    eV*Ang^n  
                            Exponent m        12          None
                            Exponent n         6          None
--------------------------------------------------------------------------------

********************************************************************************
*  Output for configuration   1                                                *
********************************************************************************


  Components of energy : 

--------------------------------------------------------------------------------
  Interatomic potentials     =          17.57089470 eV    
  Monopole - monopole (real) =         -19.48672366 eV    
  Monopole - monopole (recip)=         -74.18980508 eV    
  Monopole - monopole (total)=         -93.67652875 eV    
--------------------------------------------------------------------------------
  Total lattice energy       =         -76.10563405 eV    
--------------------------------------------------------------------------------
  Total lattice energy       =           -7343.0303 kJ/(mole unit cells)
--------------------------------------------------------------------------------


  Number of variables =       39

  Maximum number of calculations  =          1000
  Maximum Hessian update interval =            10
  Maximum step size               =   1.000000000
  Maximum parameter tolerance     =   0.000010000
  Maximum function  tolerance     =   0.000010000
  Maximum gradient  tolerance     =   0.001000000
  Maximum gradient  component     =   0.010000000

  Symmetry not applied to optimisation

  Cell parameters to be optimised using strains

  Conjugate gradient optimiser to be used

  Lower half triangular hessian to be used

  Minimiser to switch to BFGS with exact hessian
  When gradient norm is less than     0.500000

  Start of bulk optimisation :

  Cycle:      0 Energy:       -76.105634  Gnorm:     11.344562  CPU:    0.022
  Cycle:      1 Energy:      -116.243966  Gnorm:      6.904898  CPU:    0.051
  Cycle:      2 Energy:      -123.677903  Gnorm:      5.204094  CPU:    0.079
  Cycle:      3 Energy:      -132.033528  Gnorm:      3.000948  CPU:    0.107
  Cycle:      4 Energy:      -135.253117  Gnorm:      1.803560  CPU:    0.134
  Cycle:      5 Energy:      -136.799829  Gnorm:      2.010328  CPU:    0.160
  Cycle:      6 Energy:      -138.582806  Gnorm:      3.190148  CPU:    0.186
  Cycle:      7 Energy:      -140.915833  Gnorm:      2.805415  CPU:    0.212
  Cycle:      8 Energy:      -144.256651  Gnorm:      1.557359  CPU:    0.237
  Cycle:      9 Energy:      -147.533321  Gnorm:      1.852092  CPU:    0.263
  Cycle:     10 Energy:      -148.758770  Gnorm:      1.021704  CPU:    0.290
  Cycle:     11 Energy:      -149.580063  Gnorm:      0.922455  CPU:    0.316
  Cycle:     12 Energy:      -150.455054  Gnorm:      0.826303  CPU:    0.343
  Cycle:     13 Energy:      -150.737489  Gnorm:      0.686734  CPU:    0.365
  Cycle:     14 Energy:      -151.107828  Gnorm:      0.564695  CPU:    0.393
  Cycle:     15 Energy:      -151.321960  Gnorm:      0.487611  CPU:    0.420
  ** Hessian calculated **
  Cycle:     16 Energy:      -151.625093  Gnorm:      0.480624  CPU:    0.490
  Cycle:     17 Energy:      -151.987119  Gnorm:      0.642805  CPU:    0.525
  Cycle:     18 Energy:      -152.423517  Gnorm:      0.598727  CPU:    0.560
  Cycle:     19 Energy:      -152.808797  Gnorm:      0.513824  CPU:    0.596
  Cycle:     20 Energy:      -153.181630  Gnorm:      0.456804  CPU:    0.625
  Cycle:     21 Energy:      -153.472287  Gnorm:      0.476253  CPU:    0.662
  Cycle:     22 Energy:      -153.679157  Gnorm:      0.447806  CPU:    0.692
  Cycle:     23 Energy:      -153.946164  Gnorm:      0.374205  CPU:    0.729
  Cycle:     24 Energy:      -154.092842  Gnorm:      0.366569  CPU:    0.759
  Cycle:     25 Energy:      -154.279213  Gnorm:      0.369723  CPU:    0.796
  ** Hessian calculated **
  Cycle:     26 Energy:      -154.376790  Gnorm:      0.258463  CPU:    0.864
  Cycle:     27 Energy:      -154.462756  Gnorm:      0.221227  CPU:    0.902
  Cycle:     28 Energy:      -154.576135  Gnorm:      0.277971  CPU:    0.939
  Cycle:     29 Energy:      -154.742517  Gnorm:      0.270140  CPU:    0.976
  Cycle:     30 Energy:      -154.890038  Gnorm:      0.274402  CPU:    1.007
  Cycle:     31 Energy:      -155.004894  Gnorm:      0.219048  CPU:    1.037
  Cycle:     32 Energy:      -155.099573  Gnorm:      0.191594  CPU:    1.068
  Cycle:     33 Energy:      -155.168267  Gnorm:      0.181789  CPU:    1.106
  Cycle:     34 Energy:      -155.226527  Gnorm:      0.172858  CPU:    1.137
  Cycle:     35 Energy:      -155.285266  Gnorm:      0.199622  CPU:    1.175
  ** Hessian calculated **
  Cycle:     36 Energy:      -155.386726  Gnorm:      0.109735  CPU:    1.260
  ** Hessian calculated **
  Cycle:     37 Energy:      -155.427883  Gnorm:      0.046522  CPU:    1.333
  Cycle:     38 Energy:      -155.432051  Gnorm:      0.012989  CPU:    1.371
  Cycle:     39 Energy:      -155.433406  Gnorm:      0.015507  CPU:    1.410
  Cycle:     40 Energy:      -155.436714  Gnorm:      0.016760  CPU:    1.463
  Cycle:     41 Energy:      -155.437771  Gnorm:      0.021746  CPU:    1.494
  Cycle:     42 Energy:      -155.440064  Gnorm:      0.023998  CPU:    1.533
  Cycle:     43 Energy:      -155.442188  Gnorm:      0.020440  CPU:    1.564
  Cycle:     44 Energy:      -155.443098  Gnorm:      0.011087  CPU:    1.602
  Cycle:     45 Energy:      -155.443545  Gnorm:      0.009449  CPU:    1.641
  Cycle:     46 Energy:      -155.443864  Gnorm:      0.006053  CPU:    1.672
  ** Hessian calculated **
  Cycle:     47 Energy:      -155.444055  Gnorm:      0.001301  CPU:    1.751


  **** Optimisation achieved ****


  Final energy =    -155.44405722 eV      
  Final Gnorm  =       0.00004790

  Components of energy : 

--------------------------------------------------------------------------------
  Interatomic potentials     =          12.38498954 eV    
  Monopole - monopole (real) =         -65.93642034 eV    
  Monopole - monopole (recip)=        -101.89262643 eV    
  Monopole - monopole (total)=        -167.82904676 eV    
--------------------------------------------------------------------------------
  Total lattice energy       =        -155.44405722 eV    
--------------------------------------------------------------------------------
  Total lattice energy       =          -14997.9753 kJ/(mole unit cells)
--------------------------------------------------------------------------------

  Final fractional coordinates of atoms :

--------------------------------------------------------------------------------
   No.  Atomic        x           y          z          Radius
        Label       (Frac)      (Frac)     (Frac)       (Angs) 
--------------------------------------------------------------------------------
     1  Ti    c     0.569246    0.140008    0.282654    0.000000
     2  Ti    c     0.069680    0.977263    0.544157    0.000000
     3  Ti    c     0.005032    0.453501    0.811023    0.000000
     4  Ti    c     0.495106    0.648340    0.725329    0.000000
     5  O     c     0.553864    0.729735    0.177607    0.000000
     6  O     c     0.242296    0.192086    0.417669    0.000000
     7  O     c     0.853422    0.512077    0.427799    0.000000
     8  O     c     0.433026    0.387697    0.724711    0.000000
     9  O     c     0.218956    0.912416    0.940676    0.000000
    10  O     c     0.842993    0.228456    0.979270    0.000000
    11  O     c     0.124008    0.676712    0.571363    0.000000
    12  O     c     0.722224    0.003730    0.640777    0.000000
--------------------------------------------------------------------------------

  Final Cartesian lattice vectors (Angstroms) :

        6.015067    1.054918    1.985540
        1.047615    6.529029   -0.096885
        0.456137    0.033564    3.451181


  Final cell parameters and derivatives :

--------------------------------------------------------------------------------
       a            6.421546 Angstrom     dE/de1(xx)     0.000107 eV/strain
       b            6.613252 Angstrom     dE/de2(yy)    -0.000172 eV/strain
       c            3.481355 Angstrom     dE/de3(zz)    -0.000137 eV/strain
       alpha       89.097518 Degrees      dE/de4(yz)     0.000209 eV/strain
       beta        64.479581 Degrees      dE/de5(xz)    -0.000030 eV/strain
       gamma       72.179259 Degrees      dE/de6(xy)    -0.000064 eV/strain
--------------------------------------------------------------------------------

  Primitive cell volume =           125.852142 Angs**3

  Density of cell =      4.215930 g/cm**3

  Non-primitive cell volume =           125.852142 Angs**3


  Final internal derivatives :

--------------------------------------------------------------------------------
   No.  Atomic          a             b             c           Radius
        Label          (eV)          (eV)          (eV)        (eV/Angs)
--------------------------------------------------------------------------------
      1 Ti    c       0.000000      0.000000      0.000000      0.000000
      2 Ti    c       0.000166     -0.000293      0.000058      0.000000
      3 Ti    c       0.000363      0.000811     -0.000097      0.000000
      4 Ti    c      -0.000438     -0.000566      0.000072      0.000000
      5 O     c       0.000175      0.000162     -0.000021      0.000000
      6 O     c      -0.000048     -0.000067     -0.000295      0.000000
      7 O     c       0.000117     -0.000231      0.000005      0.000000
      8 O     c       0.000472     -0.000176      0.000522      0.000000
      9 O     c      -0.000504      0.000350     -0.000221      0.000000
     10 O     c       0.000207     -0.000359      0.000360      0.000000
     11 O     c      -0.000104     -0.000147      0.000049      0.000000
     12 O     c       0.000552      0.000351      0.000115      0.000000
--------------------------------------------------------------------------------
  Maximum abs         0.000552      0.000811      0.000522      0.000000
--------------------------------------------------------------------------------


  Time to end of optimisation =       1.7822 seconds


  Peak dynamic memory used =       1.84 MB 


  Timing analysis for GULP :

--------------------------------------------------------------------------------
  Task / Subroutine                                          Time (Seconds)
--------------------------------------------------------------------------------
  Calculation of reciprocal space energy and derivatives          0.0660
  Calculation of real space energy and derivatives                1.6963
  Calculation and manipulation of Hessian matrix                  0.0006
  Calculation of matrix inversion                                 0.0009
  Global summation overhead                                       0.0003
--------------------------------------------------------------------------------
  Total CPU time                                                  1.7822
--------------------------------------------------------------------------------


  Job Finished at 11:07.24 29th May        2024                               

