********************************************************************************
*                       GENERAL UTILITY LATTICE PROGRAM                        *
*                                 Julian Gale                                  *
*                       Curtin Institute for Computation                       *
*                    School of Molecular and Life Sciences                     *
*                    Curtin University, Western Australia                      *
********************************************************************************
* Version = 6.0.0 * Last modified =  12th July 2021                            *
********************************************************************************
*  optimise     - perform optimisation run                                     *
*  conp         - constant pressure calculation                                *
*  conjugate    - use conjugate gradients minimiser                            *
********************************************************************************

  Job Started  at 11:07.16 29th May        2024                               

  Number of CPUs =     1


  Total number of configurations input =      1

********************************************************************************
*  Input for Configuration =   1                                               *
********************************************************************************

  Formula = Ti4O8                                                       

  Number of irreducible atoms/shells =      12


  Total number atoms/shells =      12

  Dimensionality = 3               :  Bulk   



  Cartesian lattice vectors (Angstroms) :

       -5.211385   11.001711  -23.462370
       -7.956804   58.819570  -20.535994
        8.648025  -16.181951   39.077358

  Cell parameters (Angstroms/Degrees):

  a =      26.4325    alpha = 132.2513
  b =      62.8075    beta  = 177.4180
  c =      43.1704    gamma =  45.1709

  Initial cell volume =         134.024850 Angs**3

  Temperature of configuration =   0.00     K 

  Pressure of configuration =         0.000 GPa 

  Fractional coordinates of asymmetric unit :

--------------------------------------------------------------------------------
   No.  Atomic       x           y          z         Charge      Occupancy
        Label      (Frac)      (Frac)     (Frac)        (e)         (Frac)  
--------------------------------------------------------------------------------
      1 Ti    c    0.042860    0.190978    0.201110     2.19600    1.000000    
      2 Ti    c    0.232768 *  0.032724 *  0.011201 *   2.19600    1.000000    
      3 Ti    c    0.232768 *  0.159329 *  0.011202 *   2.19600    1.000000    
      4 Ti    c    0.042859 *  0.064372 *  0.201109 *   2.19600    1.000000    
      5 O     c    0.180085 *  0.059061 *  0.063880 *  -1.09800    1.000000    
      6 O     c    0.095541 *  0.164640 *  0.148431 *  -1.09800    1.000000    
      7 O     c    0.095541 *  0.038035 *  0.148429 *  -1.09800    1.000000    
      8 O     c    0.180088 *  0.185668 *  0.063886 *  -1.09800    1.000000    
      9 O     c    0.243392 *  0.217321 *  0.000585 *  -1.09800    1.000000    
     10 O     c    0.032235 *  0.132987 *  0.211730 *  -1.09800    1.000000    
     11 O     c    0.032235 *  0.006381 *  0.211730 *  -1.09800    1.000000    
     12 O     c    0.243389 *  0.090715 *  0.000579 *  -1.09800    1.000000    
--------------------------------------------------------------------------------



********************************************************************************
*  General input information                                                   *
********************************************************************************

  Species output for all configurations : 

--------------------------------------------------------------------------------
  Species    Type    Atomic    Atomic    Charge       Radii (Angs)     Library
                     Number     Mass       (e)     Cova   Ionic  VDW   Symbol
--------------------------------------------------------------------------------
    Ti       Core       22      47.88   2.196000   1.470  0.000  2.190          
    O        Core        8      16.00  -1.098000   0.730  0.000  1.360          
--------------------------------------------------------------------------------


  Lattice summation method               =    Ewald          (3-D)
                                         =    Parry          (2-D)
                                         =    Saunders et al (1-D)
  Accuracy factor for lattice sums       =   12.000


  Analytic derivatives to be used

  Time limit = Infinity

  Maximum range for interatomic potentials =    100000.000000 Angstroms

  General interatomic potentials :

--------------------------------------------------------------------------------
Atom  Types   Potential      Parameter       Value         Units   Cutoffs(Ang)
  1     2                                                            Min /  Max 
--------------------------------------------------------------------------------
Ti   c Ti   c Buckingham    Buckingham A     31120.100    eV        0.000 15.000
                            Buckingham rho  0.15400000    Ang       
                            Buckingham C     5.2500000    eV*Ang^6  
--------------------------------------------------------------------------------
O    c O    c Buckingham    Buckingham A     11782.700    eV        0.000 15.000
                            Buckingham rho  0.23400000    Ang       
                            Buckingham C     30.220000    eV*Ang^6  
--------------------------------------------------------------------------------
O    c Ti   c Buckingham    Buckingham A     16957.500    eV        0.000 15.000
                            Buckingham rho  0.19400000    Ang       
                            Buckingham C     12.590000    eV*Ang^6  
--------------------------------------------------------------------------------
Ti   c Ti   c Lennard       Lennard-Jones A  1.0000000    eV*Ang^m  0.000 15.000
                            Lennard-Jones B  0.0000000    eV*Ang^n  
                            Exponent m        12          None
                            Exponent n         6          None
--------------------------------------------------------------------------------
O    c O    c Lennard       Lennard-Jones A  1.0000000    eV*Ang^m  0.000 15.000
                            Lennard-Jones B  0.0000000    eV*Ang^n  
                            Exponent m        12          None
                            Exponent n         6          None
--------------------------------------------------------------------------------
O    c Ti   c Lennard       Lennard-Jones A  1.0000000    eV*Ang^m  0.000 15.000
                            Lennard-Jones B  0.0000000    eV*Ang^n  
                            Exponent m        12          None
                            Exponent n         6          None
--------------------------------------------------------------------------------

********************************************************************************
*  Output for configuration   1                                                *
********************************************************************************



  **** Too many reciprocal lattice vectors needed ****
  **** Probably due to unphysical cell dimensions ****

  Current cell parameters : 

    a =  26.4325    alpha = 132.2513
    b =  62.8075    beta  = 177.4180
    c =  43.1704    gamma =  45.1709

 Program terminated by processor     0 in               kindex

