********************************************************************************
*                       GENERAL UTILITY LATTICE PROGRAM                        *
*                                 Julian Gale                                  *
*                       Curtin Institute for Computation                       *
*                    School of Molecular and Life Sciences                     *
*                    Curtin University, Western Australia                      *
********************************************************************************
* Version = 6.0.0 * Last modified =  12th July 2021                            *
********************************************************************************
*  optimise     - perform optimisation run                                     *
*  conv         - constant volume calculation                                  *
*  conjugate    - use conjugate gradients minimiser                            *
********************************************************************************

  Job Started  at 18:18.25  5th April      2024                               

  Number of CPUs =     1


  Total number of configurations input =      1

********************************************************************************
*  Input for Configuration =   1                                               *
********************************************************************************

  Formula = C4                                                          

  Number of irreducible atoms/shells =       4


  Total number atoms/shells =       4

  Dimensionality = 3               :  Bulk   



  Cartesian lattice vectors (Angstroms) :

        3.873032    0.000000    0.000000
        0.000000    2.428131    0.771340
        0.000000    0.000000    3.000000

  Cell parameters (Angstroms/Degrees):

  a =       3.8730    alpha =  72.3766
  b =       2.5477    beta  =  90.0000
  c =       3.0000    gamma =  90.0000

  Initial cell volume =          28.212689 Angs**3

  Temperature of configuration =   0.00     K 

  Pressure of configuration =         0.000 GPa 

  Fractional coordinates of asymmetric unit :

--------------------------------------------------------------------------------
   No.  Atomic       x           y          z         Charge      Occupancy
        Label      (Frac)      (Frac)     (Frac)        (e)         (Frac)  
--------------------------------------------------------------------------------
      1 C     c    0.684041    0.955035    0.500000     0.00000    1.000000    
      2 C     c    0.684041 *  0.044965 *  0.500000 *   0.00000    1.000000    
      3 C     c    0.960445 *  0.541715 *  0.500000 *   0.00000    1.000000    
      4 C     c    0.960445 *  0.458285 *  0.500000 *   0.00000    1.000000    
--------------------------------------------------------------------------------



********************************************************************************
*  General input information                                                   *
********************************************************************************

  Species output for all configurations : 

--------------------------------------------------------------------------------
  Species    Type    Atomic    Atomic    Charge       Radii (Angs)     Library
                     Number     Mass       (e)     Cova   Ionic  VDW   Symbol
--------------------------------------------------------------------------------
    C        Core        6      12.01   0.000000   0.770  0.000  1.530          
--------------------------------------------------------------------------------


  Lattice summation method               =    Ewald          (3-D)
                                         =    Parry          (2-D)
                                         =    Saunders et al (1-D)
  Accuracy factor for lattice sums       =   12.000


  Analytic derivatives to be used

  Time limit = Infinity

  Maximum range for interatomic potentials =    100000.000000 Angstroms

  EDIP forcefield to be used

  EDIP Coordination Number :

--------------------------------------------------------------------------------
 Atom Types   Sigma    alpha      f_low      f_high     p_low      p_high       
               or                 (Ang)      (Ang)      (Ang)      (Ang)        
  1     2     Pi       Zdih       Zrep       c0                                 
                                             (Ang)                              
--------------------------------------------------------------------------------
C    c C    c pi       1.54400    1.54700    2.27000    1.48100    2.00000
                       0.30000    0.06000    3.20000
--------------------------------------------------------------------------------

  EDIP Twobody Energy :

--------------------------------------------------------------------------------
Atom  Types   Epsilon     p     B       Beta      Sigma       a       a_prime   
  1     2      (eV)           (Ang)     (Ang)     (Ang)     (Ang)     (Ang)     
--------------------------------------------------------------------------------
C    c C    c   20.090004.000    0.9538    0.0490    1.2570    1.8920    0.1700
--------------------------------------------------------------------------------

  EDIP Threebody Energy (New form) :

--------------------------------------------------------------------------------
 Atom  Types               Lambda0/          Lambda_prime/       Z0/            
  1     2     3            Gamma             Gamma_prime         q              
--------------------------------------------------------------------------------
C    c C    c C    c       79.340000         0.300000         3.615000
                            1.354000         0.936000         3.500000
--------------------------------------------------------------------------------

********************************************************************************
*  Output for configuration   1                                                *
********************************************************************************


  Components of energy : 

--------------------------------------------------------------------------------
  Interatomic potentials     =           0.00000000 eV    
  EDIP force field           =       17161.94414334 eV    
  Monopole - monopole (real) =           0.00000000 eV    
  Monopole - monopole (recip)=           0.00000000 eV    
  Monopole - monopole (total)=           0.00000000 eV    
--------------------------------------------------------------------------------
  Total lattice energy       =       17161.94414334 eV    
--------------------------------------------------------------------------------
  Total lattice energy       =         1655865.2655 kJ/(mole unit cells)
--------------------------------------------------------------------------------


  Number of variables =        9

  Maximum number of calculations  =          1000
  Maximum Hessian update interval =            10
  Maximum step size               =   1.000000000
  Maximum parameter tolerance     =   0.000010000
  Maximum function  tolerance     =   0.000010000
  Maximum gradient  tolerance     =   0.001000000
  Maximum gradient  component     =   0.010000000

  Symmetry not applied to optimisation

  Conjugate gradient optimiser to be used

  Lower half triangular hessian to be used

  Minimiser to switch to BFGS with exact hessian
  When gradient norm is less than     0.500000

  Start of bulk optimisation :

  Cycle:      0 Energy:     17161.944143  Gnorm:  88814.798183  CPU:    0.040
  Cycle:      1 Energy:        73.190214  Gnorm:    101.082452  CPU:    0.050
  Cycle:      2 Energy:       -14.392365  Gnorm:     13.529934  CPU:    0.054
  Cycle:      3 Energy:       -18.954561  Gnorm:      5.005487  CPU:    0.060
  Cycle:      4 Energy:       -20.634975  Gnorm:      3.318581  CPU:    0.068
  Cycle:      5 Energy:       -21.573446  Gnorm:      2.491560  CPU:    0.073
  Cycle:      6 Energy:       -22.880046  Gnorm:      2.336738  CPU:    0.078
  Cycle:      7 Energy:       -22.890125  Gnorm:      2.498788  CPU:    0.083
  Cycle:      8 Energy:       -23.396668  Gnorm:      2.035074  CPU:    0.087
  Cycle:      9 Energy:       -24.802319  Gnorm:      4.399488  CPU:    0.092
  Cycle:     10 Energy:       -26.043553  Gnorm:      4.647224  CPU:    0.096
  Cycle:     11 Energy:       -27.061227  Gnorm:      4.377117  CPU:    0.098
  Cycle:     12 Energy:       -27.487741  Gnorm:      3.721542  CPU:    0.100
  Cycle:     13 Energy:       -28.031260  Gnorm:      2.785368  CPU:    0.102
  Cycle:     14 Energy:       -28.401524  Gnorm:      1.191888  CPU:    0.103
  Cycle:     15 Energy:       -28.530753  Gnorm:      1.232517  CPU:    0.105
  Cycle:     16 Energy:       -28.622769  Gnorm:      0.996778  CPU:    0.106
  Cycle:     17 Energy:       -28.659597  Gnorm:      0.609083  CPU:    0.107
  Cycle:     18 Energy:       -28.683811  Gnorm:      0.333989  CPU:    0.109


!!!!!!!!!!!!!!!!!!!!!!!!!!!!!!!!!!!!!!!!!!!!!!!!!!!!!!!!!!!!!!!!!!!!!!!!!!!!!!!!
!! WARNING : ill conditioned Hessian - using diagonal elements only
!!!!!!!!!!!!!!!!!!!!!!!!!!!!!!!!!!!!!!!!!!!!!!!!!!!!!!!!!!!!!!!!!!!!!!!!!!!!!!!!

  ** Hessian calculated **
  Cycle:     19 Energy:       -28.689784  Gnorm:      0.351932  CPU:    0.116
  Cycle:     20 Energy:       -28.694369  Gnorm:      0.193191  CPU:    0.118
  Cycle:     21 Energy:       -28.709408  Gnorm:      0.225151  CPU:    0.121
  Cycle:     22 Energy:       -28.711951  Gnorm:      0.163061  CPU:    0.124
  Cycle:     23 Energy:       -28.714750  Gnorm:      0.117069  CPU:    0.127
  Cycle:     24 Energy:       -28.717433  Gnorm:      0.184927  CPU:    0.129
  Cycle:     25 Energy:       -28.720782  Gnorm:      0.031579  CPU:    0.132
  Cycle:     26 Energy:       -28.721130  Gnorm:      0.020244  CPU:    0.135
  Cycle:     27 Energy:       -28.721138  Gnorm:      0.020065  CPU:    0.138
  Cycle:     28 Energy:       -28.721168  Gnorm:      0.001086  CPU:    0.140


  **** Optimisation achieved ****


  Final energy =     -28.72116771 eV      
  Final Gnorm  =       0.00004619

  Components of energy : 

--------------------------------------------------------------------------------
  Interatomic potentials     =           0.00000000 eV    
  EDIP force field           =         -28.72116771 eV    
  Monopole - monopole (real) =           0.00000000 eV    
  Monopole - monopole (recip)=           0.00000000 eV    
  Monopole - monopole (total)=           0.00000000 eV    
--------------------------------------------------------------------------------
  Total lattice energy       =         -28.72116771 eV    
--------------------------------------------------------------------------------
  Total lattice energy       =           -2771.1536 kJ/(mole unit cells)
--------------------------------------------------------------------------------

  Final fractional coordinates of atoms :

--------------------------------------------------------------------------------
   No.  Atomic        x           y          z          Radius
        Label       (Frac)      (Frac)     (Frac)       (Angs) 
--------------------------------------------------------------------------------
     1  C     c     0.684041    0.955035    0.500000    0.000000
     2  C     c     0.529404    0.428707    0.573851    0.000000
     3  C     c     0.029404    0.928707    0.573851    0.000000
     4  C     c     0.184041    0.455035    0.500000    0.000000
--------------------------------------------------------------------------------

  Final internal derivatives :

--------------------------------------------------------------------------------
   No.  Atomic          a             b             c           Radius
        Label          (eV)          (eV)          (eV)        (eV/Angs)
--------------------------------------------------------------------------------
      1 C     c       0.000000      0.000000      0.000000      0.000000
      2 C     c      -0.000160      0.000092      0.000058      0.000000
      3 C     c       0.000165      0.000179      0.000106      0.000000
      4 C     c       0.000207     -0.000124     -0.000082      0.000000
--------------------------------------------------------------------------------
  Maximum abs         0.000207      0.000179      0.000106      0.000000
--------------------------------------------------------------------------------


  Time to end of optimisation =       0.1457 seconds


  Peak dynamic memory used =       1.79 MB 


  Timing analysis for GULP :

--------------------------------------------------------------------------------
  Task / Subroutine                                          Time (Seconds)
--------------------------------------------------------------------------------
  Calculation of EDIP energy and derivatives                      0.1028
  Calculation and manipulation of Hessian matrix                  0.0002
  Calculation of matrix inversion                                 0.0010
--------------------------------------------------------------------------------
  Total CPU time                                                  0.1463
--------------------------------------------------------------------------------


  Job Finished at 18:18.26  5th April      2024                               

