********************************************************************************
*                       GENERAL UTILITY LATTICE PROGRAM                        *
*                                 Julian Gale                                  *
*                       Curtin Institute for Computation                       *
*                    School of Molecular and Life Sciences                     *
*                    Curtin University, Western Australia                      *
********************************************************************************
* Version = 6.0.0 * Last modified =  12th July 2021                            *
********************************************************************************
*  optimise     - perform optimisation run                                     *
*  conv         - constant volume calculation                                  *
*  conjugate    - use conjugate gradients minimiser                            *
********************************************************************************

  Job Started  at 18:08.49  5th April      2024                               

  Number of CPUs =     1


  Total number of configurations input =      1

********************************************************************************
*  Input for Configuration =   1                                               *
********************************************************************************

  Formula = C4                                                          

  Number of irreducible atoms/shells =       4


  Total number atoms/shells =       4

  Dimensionality = 3               :  Bulk   



  Cartesian lattice vectors (Angstroms) :

        3.077427   -0.455465    0.000000
        0.000000    3.607888    0.000000
        0.000000    0.000000    3.000000

  Cell parameters (Angstroms/Degrees):

  a =       3.1109    alpha =  90.0000
  b =       3.6079    beta  =  90.0000
  c =       3.0000    gamma =  98.4188

  Initial cell volume =          33.309040 Angs**3

  Temperature of configuration =   0.00     K 

  Pressure of configuration =         0.000 GPa 

  Fractional coordinates of asymmetric unit :

--------------------------------------------------------------------------------
   No.  Atomic       x           y          z         Charge      Occupancy
        Label      (Frac)      (Frac)     (Frac)        (e)         (Frac)  
--------------------------------------------------------------------------------
      1 C     c    0.090417 *  0.087336 *  0.000000 *   0.00000    1.000000    
      2 C     c    0.765558 *  0.772376 *  0.500000 *   0.00000    1.000000    
      3 C     c    0.765558    0.772376    0.500000     0.00000    1.000000    
      4 C     c    0.783120 *  0.524144 *  0.000000 *   0.00000    1.000000    
--------------------------------------------------------------------------------


  Constraints : 

--------------------------------------------------------------------------------
  Constraint no.      Unconstrained     Constrained    Coefficient    Offset
                         Variable         Variable
--------------------------------------------------------------------------------
           1                 2 x             3 x         1.00000      0.0000
           2                 2 y             3 y         1.00000      0.0000
           3                 2 z             3 z         1.00000      0.0000
--------------------------------------------------------------------------------


********************************************************************************
*  General input information                                                   *
********************************************************************************

  Species output for all configurations : 

--------------------------------------------------------------------------------
  Species    Type    Atomic    Atomic    Charge       Radii (Angs)     Library
                     Number     Mass       (e)     Cova   Ionic  VDW   Symbol
--------------------------------------------------------------------------------
    C        Core        6      12.01   0.000000   0.770  0.000  1.530          
--------------------------------------------------------------------------------


  Lattice summation method               =    Ewald          (3-D)
                                         =    Parry          (2-D)
                                         =    Saunders et al (1-D)
  Accuracy factor for lattice sums       =   12.000


  Analytic derivatives to be used

  Time limit = Infinity

  Maximum range for interatomic potentials =    100000.000000 Angstroms

  EDIP forcefield to be used

  EDIP Coordination Number :

--------------------------------------------------------------------------------
 Atom Types   Sigma    alpha      f_low      f_high     p_low      p_high       
               or                 (Ang)      (Ang)      (Ang)      (Ang)        
  1     2     Pi       Zdih       Zrep       c0                                 
                                             (Ang)                              
--------------------------------------------------------------------------------
C    c C    c pi       1.54400    1.54700    2.27000    1.48100    2.00000
                       0.30000    0.06000    3.20000
--------------------------------------------------------------------------------

  EDIP Twobody Energy :

--------------------------------------------------------------------------------
Atom  Types   Epsilon     p     B       Beta      Sigma       a       a_prime   
  1     2      (eV)           (Ang)     (Ang)     (Ang)     (Ang)     (Ang)     
--------------------------------------------------------------------------------
C    c C    c   20.090004.000    0.9538    0.0490    1.2570    1.8920    0.1700
--------------------------------------------------------------------------------

  EDIP Threebody Energy (New form) :

--------------------------------------------------------------------------------
 Atom  Types               Lambda0/          Lambda_prime/       Z0/            
  1     2     3            Gamma             Gamma_prime         q              
--------------------------------------------------------------------------------
C    c C    c C    c       79.340000         0.300000         3.615000
                            1.354000         0.936000         3.500000
--------------------------------------------------------------------------------

********************************************************************************
*  Output for configuration   1                                                *
********************************************************************************


  Components of energy : 

--------------------------------------------------------------------------------
  Interatomic potentials     =           0.00000000 eV    
  EDIP force field           = ******************** eV    
  Monopole - monopole (real) =           0.00000000 eV    
  Monopole - monopole (recip)=           0.00000000 eV    
  Monopole - monopole (total)=           0.00000000 eV    
--------------------------------------------------------------------------------
  Total lattice energy       = ******************** eV    
--------------------------------------------------------------------------------
  Total lattice energy       = ******************** kJ/(mole unit cells)
--------------------------------------------------------------------------------


  Number of variables =        9

  Maximum number of calculations  =          1000
  Maximum Hessian update interval =            10
  Maximum step size               =   1.000000000
  Maximum parameter tolerance     =   0.000010000
  Maximum function  tolerance     =   0.000010000
  Maximum gradient  tolerance     =   0.001000000
  Maximum gradient  component     =   0.010000000

  Symmetry not applied to optimisation

  Conjugate gradient optimiser to be used

  Lower half triangular hessian to be used

  Minimiser to switch to BFGS with exact hessian
  When gradient norm is less than     0.500000

  Start of bulk optimisation :

  Cycle:      0 Energy:*****************  Gnorm:**************  CPU:    0.010
  Cycle:      1 Energy:*****************  Gnorm:**************  CPU:    0.011
  Cycle:      2 Energy:*****************  Gnorm:      3.931280  CPU:    0.012
  Cycle:      3 Energy:*****************  Gnorm:      3.931280  CPU:    0.013
  Cycle:      4 Energy:*****************  Gnorm:      3.931280  CPU:    0.013
  Cycle:      5 Energy:*****************  Gnorm:      3.931280  CPU:    0.014
  Cycle:      6 Energy:*****************  Gnorm:      3.931280  CPU:    0.015
  Cycle:      7 Energy:*****************  Gnorm:      3.931280  CPU:    0.016
  Cycle:      8 Energy:*****************  Gnorm:      3.931280  CPU:    0.017
  Cycle:      9 Energy:*****************  Gnorm:      3.931280  CPU:    0.018
  Cycle:     10 Energy:*****************  Gnorm:      3.931280  CPU:    0.019
  Cycle:     11 Energy:*****************  Gnorm:      3.931280  CPU:    0.020
  Cycle:     12 Energy:*****************  Gnorm:      3.931280  CPU:    0.021
  Cycle:     13 Energy:*****************  Gnorm:      3.931280  CPU:    0.021


  **** Too many failed attempts to optimise ****

  Final energy = **************** eV      
  Final Gnorm  =       3.93128039

  Components of energy : 

--------------------------------------------------------------------------------
  Interatomic potentials     =           0.00000000 eV    
  EDIP force field           = ******************** eV    
  Monopole - monopole (real) =           0.00000000 eV    
  Monopole - monopole (recip)=           0.00000000 eV    
  Monopole - monopole (total)=           0.00000000 eV    
--------------------------------------------------------------------------------
  Total lattice energy       = ******************** eV    
--------------------------------------------------------------------------------
  Total lattice energy       = ******************** kJ/(mole unit cells)
--------------------------------------------------------------------------------

  Final fractional coordinates of atoms :

--------------------------------------------------------------------------------
   No.  Atomic        x           y          z          Radius
        Label       (Frac)      (Frac)     (Frac)       (Angs) 
--------------------------------------------------------------------------------
     1  C     c     0.294063    0.363831    0.000000    0.000000
     2  C     c     0.765558    0.772376    0.500000    0.000000
     3  C     c     0.765558    0.772376    0.500000    0.000000
     4  C     c     0.830170    0.272681    0.000000    0.000000
--------------------------------------------------------------------------------

  Final internal derivatives :

--------------------------------------------------------------------------------
   No.  Atomic          a             b             c           Radius
        Label          (eV)          (eV)          (eV)        (eV/Angs)
--------------------------------------------------------------------------------
      1 C     c     -19.222321     16.013385      0.000000      0.000000
      2 C     c       0.000000      0.000000      0.000000      0.000000
      3 C     c       0.000000      0.000000      0.000000      0.000000
      4 C     c      19.222321    -16.013385      0.000000      0.000000
--------------------------------------------------------------------------------
  Maximum abs        19.222321     16.013385      0.000000      0.000000
--------------------------------------------------------------------------------


  Time to end of optimisation =       0.0226 seconds


  Peak dynamic memory used =       1.79 MB 


  Timing analysis for GULP :

--------------------------------------------------------------------------------
  Task / Subroutine                                          Time (Seconds)
--------------------------------------------------------------------------------
  Calculation of EDIP energy and derivatives                      0.0097
--------------------------------------------------------------------------------
  Total CPU time                                                  0.0226
--------------------------------------------------------------------------------


  Job Finished at 18:08.49  5th April      2024                               

