********************************************************************************
*                       GENERAL UTILITY LATTICE PROGRAM                        *
*                                 Julian Gale                                  *
*                       Curtin Institute for Computation                       *
*                    School of Molecular and Life Sciences                     *
*                    Curtin University, Western Australia                      *
********************************************************************************
* Version = 6.0.0 * Last modified =  12th July 2021                            *
********************************************************************************
*  optimise     - perform optimisation run                                     *
*  conv         - constant volume calculation                                  *
*  conjugate    - use conjugate gradients minimiser                            *
********************************************************************************

  Job Started  at 18:19.41  5th April      2024                               

  Number of CPUs =     1


  Total number of configurations input =      1

********************************************************************************
*  Input for Configuration =   1                                               *
********************************************************************************

  Formula = C4                                                          

  Number of irreducible atoms/shells =       4


  Total number atoms/shells =       4

  Dimensionality = 3               :  Bulk   



  Cartesian lattice vectors (Angstroms) :

        3.110176    0.000000    0.000000
        0.000000    3.257530   -2.130403
        0.000000    0.000000    3.000000

  Cell parameters (Angstroms/Degrees):

  a =       3.1102    alpha = 123.1844
  b =       3.8923    beta  =  90.0000
  c =       3.0000    gamma =  90.0000

  Initial cell volume =          30.394474 Angs**3

  Temperature of configuration =   0.00     K 

  Pressure of configuration =         0.000 GPa 

  Fractional coordinates of asymmetric unit :

--------------------------------------------------------------------------------
   No.  Atomic       x           y          z         Charge      Occupancy
        Label      (Frac)      (Frac)     (Frac)        (e)         (Frac)  
--------------------------------------------------------------------------------
      1 C     c    0.087729    0.686411    0.500000     0.00000    1.000000    
      2 C     c    0.087729 *  0.313589 *  0.500000 *   0.00000    1.000000    
      3 C     c    0.587729 *  0.186411 *  0.500000 *   0.00000    1.000000    
      4 C     c    0.587729 *  0.813589 *  0.500000 *   0.00000    1.000000    
--------------------------------------------------------------------------------



********************************************************************************
*  General input information                                                   *
********************************************************************************

  Species output for all configurations : 

--------------------------------------------------------------------------------
  Species    Type    Atomic    Atomic    Charge       Radii (Angs)     Library
                     Number     Mass       (e)     Cova   Ionic  VDW   Symbol
--------------------------------------------------------------------------------
    C        Core        6      12.01   0.000000   0.770  0.000  1.530          
--------------------------------------------------------------------------------


  Lattice summation method               =    Ewald          (3-D)
                                         =    Parry          (2-D)
                                         =    Saunders et al (1-D)
  Accuracy factor for lattice sums       =   12.000


  Analytic derivatives to be used

  Time limit = Infinity

  Maximum range for interatomic potentials =    100000.000000 Angstroms

  EDIP forcefield to be used

  EDIP Coordination Number :

--------------------------------------------------------------------------------
 Atom Types   Sigma    alpha      f_low      f_high     p_low      p_high       
               or                 (Ang)      (Ang)      (Ang)      (Ang)        
  1     2     Pi       Zdih       Zrep       c0                                 
                                             (Ang)                              
--------------------------------------------------------------------------------
C    c C    c pi       1.54400    1.54700    2.27000    1.48100    2.00000
                       0.30000    0.06000    3.20000
--------------------------------------------------------------------------------

  EDIP Twobody Energy :

--------------------------------------------------------------------------------
Atom  Types   Epsilon     p     B       Beta      Sigma       a       a_prime   
  1     2      (eV)           (Ang)     (Ang)     (Ang)     (Ang)     (Ang)     
--------------------------------------------------------------------------------
C    c C    c   20.090004.000    0.9538    0.0490    1.2570    1.8920    0.1700
--------------------------------------------------------------------------------

  EDIP Threebody Energy (New form) :

--------------------------------------------------------------------------------
 Atom  Types               Lambda0/          Lambda_prime/       Z0/            
  1     2     3            Gamma             Gamma_prime         q              
--------------------------------------------------------------------------------
C    c C    c C    c       79.340000         0.300000         3.615000
                            1.354000         0.936000         3.500000
--------------------------------------------------------------------------------

********************************************************************************
*  Output for configuration   1                                                *
********************************************************************************


  Components of energy : 

--------------------------------------------------------------------------------
  Interatomic potentials     =           0.00000000 eV    
  EDIP force field           =         -24.97376570 eV    
  Monopole - monopole (real) =           0.00000000 eV    
  Monopole - monopole (recip)=           0.00000000 eV    
  Monopole - monopole (total)=           0.00000000 eV    
--------------------------------------------------------------------------------
  Total lattice energy       =         -24.97376570 eV    
--------------------------------------------------------------------------------
  Total lattice energy       =           -2409.5866 kJ/(mole unit cells)
--------------------------------------------------------------------------------


  Number of variables =        9

  Maximum number of calculations  =          1000
  Maximum Hessian update interval =            10
  Maximum step size               =   1.000000000
  Maximum parameter tolerance     =   0.000010000
  Maximum function  tolerance     =   0.000010000
  Maximum gradient  tolerance     =   0.001000000
  Maximum gradient  component     =   0.010000000

  Symmetry not applied to optimisation

  Conjugate gradient optimiser to be used

  Lower half triangular hessian to be used

  Minimiser to switch to BFGS with exact hessian
  When gradient norm is less than     0.500000

  Start of bulk optimisation :

  Cycle:      0 Energy:       -24.973766  Gnorm:      0.490667  CPU:    0.014


!!!!!!!!!!!!!!!!!!!!!!!!!!!!!!!!!!!!!!!!!!!!!!!!!!!!!!!!!!!!!!!!!!!!!!!!!!!!!!!!
!! WARNING : ill conditioned Hessian - using diagonal elements only
!!!!!!!!!!!!!!!!!!!!!!!!!!!!!!!!!!!!!!!!!!!!!!!!!!!!!!!!!!!!!!!!!!!!!!!!!!!!!!!!

  ** Hessian calculated **
  Cycle:      1 Energy:       -24.979233  Gnorm:      0.168507  CPU:    0.020
  Cycle:      2 Energy:       -24.979749  Gnorm:      0.169913  CPU:    0.022
  Cycle:      3 Energy:       -24.980034  Gnorm:      0.159396  CPU:    0.023


!!!!!!!!!!!!!!!!!!!!!!!!!!!!!!!!!!!!!!!!!!!!!!!!!!!!!!!!!!!!!!!!!!!!!!!!!!!!!!!!
!! WARNING : ill conditioned Hessian - using diagonal elements only
!!!!!!!!!!!!!!!!!!!!!!!!!!!!!!!!!!!!!!!!!!!!!!!!!!!!!!!!!!!!!!!!!!!!!!!!!!!!!!!!

  ** Hessian calculated **
  Cycle:      4 Energy:       -24.980584  Gnorm:      0.048497  CPU:    0.025
  Cycle:      5 Energy:       -24.980593  Gnorm:      0.048242  CPU:    0.025


!!!!!!!!!!!!!!!!!!!!!!!!!!!!!!!!!!!!!!!!!!!!!!!!!!!!!!!!!!!!!!!!!!!!!!!!!!!!!!!!
!! WARNING : ill conditioned Hessian - using diagonal elements only
!!!!!!!!!!!!!!!!!!!!!!!!!!!!!!!!!!!!!!!!!!!!!!!!!!!!!!!!!!!!!!!!!!!!!!!!!!!!!!!!

  ** Hessian calculated **
  Cycle:      6 Energy:       -24.980647  Gnorm:      0.006750  CPU:    0.027
  Cycle:      7 Energy:       -24.980661  Gnorm:      0.009738  CPU:    0.027
  Cycle:      8 Energy:       -24.980666  Gnorm:      0.004833  CPU:    0.028
  Cycle:      9 Energy:       -24.980667  Gnorm:      0.004105  CPU:    0.028
  Cycle:     10 Energy:       -24.980670  Gnorm:      0.003939  CPU:    0.029
  Cycle:     11 Energy:       -24.980672  Gnorm:      0.003822  CPU:    0.029


  **** Optimisation achieved ****


  Final energy =     -24.98067202 eV      
  Final Gnorm  =       0.00001041

  Components of energy : 

--------------------------------------------------------------------------------
  Interatomic potentials     =           0.00000000 eV    
  EDIP force field           =         -24.98067202 eV    
  Monopole - monopole (real) =           0.00000000 eV    
  Monopole - monopole (recip)=           0.00000000 eV    
  Monopole - monopole (total)=           0.00000000 eV    
--------------------------------------------------------------------------------
  Total lattice energy       =         -24.98067202 eV    
--------------------------------------------------------------------------------
  Total lattice energy       =           -2410.2530 kJ/(mole unit cells)
--------------------------------------------------------------------------------

  Final fractional coordinates of atoms :

--------------------------------------------------------------------------------
   No.  Atomic        x           y          z          Radius
        Label       (Frac)      (Frac)     (Frac)       (Angs) 
--------------------------------------------------------------------------------
     1  C     c     0.087729    0.686411    0.500000    0.000000
     2  C     c     0.087729    0.316506    0.500000    0.000000
     3  C     c     0.587729    0.186411    0.500000    0.000000
     4  C     c     0.587729    0.816506    0.500000    0.000000
--------------------------------------------------------------------------------

  Final internal derivatives :

--------------------------------------------------------------------------------
   No.  Atomic          a             b             c           Radius
        Label          (eV)          (eV)          (eV)        (eV/Angs)
--------------------------------------------------------------------------------
      1 C     c       0.000000      0.000000      0.000000      0.000000
      2 C     c       0.000001      0.000016     -0.000009      0.000000
      3 C     c      -0.000001     -0.000064      0.000028      0.000000
      4 C     c       0.000000      0.000055     -0.000022      0.000000
--------------------------------------------------------------------------------
  Maximum abs         0.000001      0.000064      0.000028      0.000000
--------------------------------------------------------------------------------


  Time to end of optimisation =       0.0310 seconds


  Peak dynamic memory used =       1.79 MB 


  Timing analysis for GULP :

--------------------------------------------------------------------------------
  Task / Subroutine                                          Time (Seconds)
--------------------------------------------------------------------------------
  Calculation of EDIP energy and derivatives                      0.0117
  Calculation and manipulation of Hessian matrix                  0.0005
  Calculation of matrix inversion                                 0.0012
--------------------------------------------------------------------------------
  Total CPU time                                                  0.0318
--------------------------------------------------------------------------------


  Job Finished at 18:19.41  5th April      2024                               

