********************************************************************************
*                       GENERAL UTILITY LATTICE PROGRAM                        *
*                                 Julian Gale                                  *
*                       Curtin Institute for Computation                       *
*                    School of Molecular and Life Sciences                     *
*                    Curtin University, Western Australia                      *
********************************************************************************
* Version = 6.0.0 * Last modified =  12th July 2021                            *
********************************************************************************
*  optimise     - perform optimisation run                                     *
*  conp         - constant pressure calculation                                *
*  conjugate    - use conjugate gradients minimiser                            *
********************************************************************************

  Job Started  at 10:53.48 29th May        2024                               

  Number of CPUs =     1


  Total number of configurations input =      1

********************************************************************************
*  Input for Configuration =   1                                               *
********************************************************************************

  Formula = Ti4O8                                                       

  Number of irreducible atoms/shells =      12


  Total number atoms/shells =      12

  Dimensionality = 3               :  Bulk   



  Cartesian lattice vectors (Angstroms) :

        6.875889    0.000000    0.000000
        0.000000    4.214342    0.000000
        0.000000    0.000000    7.665206

  Cell parameters (Angstroms/Degrees):

  a =       6.8759    alpha =  90.0000
  b =       4.2143    beta  =  90.0000
  c =       7.6652    gamma =  90.0000

  Initial cell volume =         222.117323 Angs**3

  Temperature of configuration =   0.00     K 

  Pressure of configuration =         0.000 GPa 

  Fractional coordinates of asymmetric unit :

--------------------------------------------------------------------------------
   No.  Atomic       x           y          z         Charge      Occupancy
        Label      (Frac)      (Frac)     (Frac)        (e)         (Frac)  
--------------------------------------------------------------------------------
      1 Ti    c    0.000000    0.500000    0.959232     2.19600    1.000000    
      2 Ti    c    0.500000 *  0.000000 *  0.040768 *   2.19600    1.000000    
      3 Ti    c    0.000000 *  0.000000 *  0.686852 *   2.19600    1.000000    
      4 Ti    c    0.500000 *  0.500000 *  0.313148 *   2.19600    1.000000    
      5 O     c    0.148540 *  0.838401 *  0.231399 *  -1.09800    1.000000    
      6 O     c    0.851460 *  0.161599 *  0.231399 *  -1.09800    1.000000    
      7 O     c    0.351460 *  0.338401 *  0.768601 *  -1.09800    1.000000    
      8 O     c    0.648540 *  0.661599 *  0.768601 *  -1.09800    1.000000    
      9 O     c    0.572859 *  0.369060 *  0.974181 *  -1.09800    1.000000    
     10 O     c    0.427141 *  0.630940 *  0.974181 *  -1.09800    1.000000    
     11 O     c    0.927141 *  0.869060 *  0.025819 *  -1.09800    1.000000    
     12 O     c    0.072859 *  0.130940 *  0.025819 *  -1.09800    1.000000    
--------------------------------------------------------------------------------



********************************************************************************
*  General input information                                                   *
********************************************************************************

  Species output for all configurations : 

--------------------------------------------------------------------------------
  Species    Type    Atomic    Atomic    Charge       Radii (Angs)     Library
                     Number     Mass       (e)     Cova   Ionic  VDW   Symbol
--------------------------------------------------------------------------------
    Ti       Core       22      47.88   2.196000   1.470  0.000  2.190          
    O        Core        8      16.00  -1.098000   0.730  0.000  1.360          
--------------------------------------------------------------------------------


  Lattice summation method               =    Ewald          (3-D)
                                         =    Parry          (2-D)
                                         =    Saunders et al (1-D)
  Accuracy factor for lattice sums       =   12.000


  Analytic derivatives to be used

  Time limit = Infinity

  Maximum range for interatomic potentials =    100000.000000 Angstroms

  General interatomic potentials :

--------------------------------------------------------------------------------
Atom  Types   Potential      Parameter       Value         Units   Cutoffs(Ang)
  1     2                                                            Min /  Max 
--------------------------------------------------------------------------------
Ti   c Ti   c Buckingham    Buckingham A     31120.100    eV        0.000 15.000
                            Buckingham rho  0.15400000    Ang       
                            Buckingham C     5.2500000    eV*Ang^6  
--------------------------------------------------------------------------------
O    c O    c Buckingham    Buckingham A     11782.700    eV        0.000 15.000
                            Buckingham rho  0.23400000    Ang       
                            Buckingham C     30.220000    eV*Ang^6  
--------------------------------------------------------------------------------
O    c Ti   c Buckingham    Buckingham A     16957.500    eV        0.000 15.000
                            Buckingham rho  0.19400000    Ang       
                            Buckingham C     12.590000    eV*Ang^6  
--------------------------------------------------------------------------------
Ti   c Ti   c Lennard       Lennard-Jones A  1.0000000    eV*Ang^m  0.000 15.000
                            Lennard-Jones B  0.0000000    eV*Ang^n  
                            Exponent m        12          None
                            Exponent n         6          None
--------------------------------------------------------------------------------
O    c O    c Lennard       Lennard-Jones A  1.0000000    eV*Ang^m  0.000 15.000
                            Lennard-Jones B  0.0000000    eV*Ang^n  
                            Exponent m        12          None
                            Exponent n         6          None
--------------------------------------------------------------------------------
O    c Ti   c Lennard       Lennard-Jones A  1.0000000    eV*Ang^m  0.000 15.000
                            Lennard-Jones B  0.0000000    eV*Ang^n  
                            Exponent m        12          None
                            Exponent n         6          None
--------------------------------------------------------------------------------

********************************************************************************
*  Output for configuration   1                                                *
********************************************************************************


  Components of energy : 

--------------------------------------------------------------------------------
  Interatomic potentials     =          50.27880378 eV    
  Monopole - monopole (real) =         -25.45754418 eV    
  Monopole - monopole (recip)=         -78.54169522 eV    
  Monopole - monopole (total)=        -103.99923940 eV    
--------------------------------------------------------------------------------
  Total lattice energy       =         -53.72043562 eV    
--------------------------------------------------------------------------------
  Total lattice energy       =           -5183.2008 kJ/(mole unit cells)
--------------------------------------------------------------------------------


  Number of variables =       39

  Maximum number of calculations  =          1000
  Maximum Hessian update interval =            10
  Maximum step size               =   1.000000000
  Maximum parameter tolerance     =   0.000010000
  Maximum function  tolerance     =   0.000010000
  Maximum gradient  tolerance     =   0.001000000
  Maximum gradient  component     =   0.010000000

  Symmetry not applied to optimisation

  Cell parameters to be optimised using strains

  Conjugate gradient optimiser to be used

  Lower half triangular hessian to be used

  Minimiser to switch to BFGS with exact hessian
  When gradient norm is less than     0.500000

  Start of bulk optimisation :

  Cycle:      0 Energy:       -53.720436  Gnorm:     25.924326  CPU:    0.017
  Cycle:      1 Energy:      -103.847402  Gnorm:      4.878760  CPU:    0.031
  Cycle:      2 Energy:      -127.944094  Gnorm:      2.540765  CPU:    0.053
  Cycle:      3 Energy:      -135.393578  Gnorm:      2.121138  CPU:    0.071
  Cycle:      4 Energy:      -139.983228  Gnorm:      2.710817  CPU:    0.088
  Cycle:      5 Energy:      -141.001154  Gnorm:      2.604576  CPU:    0.110
  Cycle:      6 Energy:      -144.998831  Gnorm:      0.991268  CPU:    0.132
  Cycle:      7 Energy:      -146.559030  Gnorm:      1.052214  CPU:    0.153
  Cycle:      8 Energy:      -147.233093  Gnorm:      0.523696  CPU:    0.171
  Cycle:      9 Energy:      -147.611711  Gnorm:      0.540684  CPU:    0.193
  Cycle:     10 Energy:      -147.804458  Gnorm:      0.380100  CPU:    0.211
  ** Hessian calculated **
  Cycle:     11 Energy:      -148.378397  Gnorm:      0.898796  CPU:    0.268
  Cycle:     12 Energy:      -150.334390  Gnorm:      1.136853  CPU:    0.296
  Cycle:     13 Energy:      -150.621151  Gnorm:      1.279090  CPU:    0.323
  Cycle:     14 Energy:      -151.216312  Gnorm:      0.994123  CPU:    0.349
  Cycle:     15 Energy:      -152.005517  Gnorm:      0.651075  CPU:    0.370
  Cycle:     16 Energy:      -152.893488  Gnorm:      0.703463  CPU:    0.395
  Cycle:     17 Energy:      -153.464296  Gnorm:      0.593908  CPU:    0.415
  Cycle:     18 Energy:      -154.266504  Gnorm:      0.728784  CPU:    0.441
  Cycle:     19 Energy:      -154.744426  Gnorm:      0.265139  CPU:    0.462
  Cycle:     20 Energy:      -154.983615  Gnorm:      0.433579  CPU:    0.488
  ** Hessian calculated **
  Cycle:     21 Energy:      -155.349062  Gnorm:      0.446548  CPU:    0.553
  Cycle:     22 Energy:      -156.263476  Gnorm:      0.666948  CPU:    0.593
  Cycle:     23 Energy:      -156.544888  Gnorm:      0.658356  CPU:    0.614
  Cycle:     24 Energy:      -157.281433  Gnorm:      0.603658  CPU:    0.642
  Cycle:     25 Energy:      -157.683612  Gnorm:      0.569584  CPU:    0.665
  Cycle:     26 Energy:      -158.360320  Gnorm:      0.540056  CPU:    0.693
  Cycle:     27 Energy:      -158.801317  Gnorm:      0.334084  CPU:    0.715
  Cycle:     28 Energy:      -158.912859  Gnorm:      0.237309  CPU:    0.737
  Cycle:     29 Energy:      -158.992427  Gnorm:      0.142305  CPU:    0.764
  Cycle:     30 Energy:      -159.030252  Gnorm:      0.090625  CPU:    0.786
  ** Hessian calculated **
  Cycle:     31 Energy:      -159.060840  Gnorm:      0.005965  CPU:    0.852
  Cycle:     32 Energy:      -159.060909  Gnorm:      0.000437  CPU:    0.874


  **** Optimisation achieved ****


  Final energy =    -159.06090981 eV      
  Final Gnorm  =       0.00002979

  Components of energy : 

--------------------------------------------------------------------------------
  Interatomic potentials     =          12.28994112 eV    
  Monopole - monopole (real) =         -67.80766753 eV    
  Monopole - monopole (recip)=        -103.54318340 eV    
  Monopole - monopole (total)=        -171.35085093 eV    
--------------------------------------------------------------------------------
  Total lattice energy       =        -159.06090981 eV    
--------------------------------------------------------------------------------
  Total lattice energy       =          -15346.9463 kJ/(mole unit cells)
--------------------------------------------------------------------------------

  Final fractional coordinates of atoms :

--------------------------------------------------------------------------------
   No.  Atomic        x           y          z          Radius
        Label       (Frac)      (Frac)     (Frac)       (Angs) 
--------------------------------------------------------------------------------
     1  Ti    c     0.000000    0.500000    0.959232    0.000000
     2  Ti    c     0.500000    0.000000    0.784279    0.000000
     3  Ti    c     0.000000    0.000000    0.459232    0.000000
     4  Ti    c     0.500000    0.500000    0.284279    0.000000
     5  O     c     0.332547    0.774031    0.507857    0.000000
     6  O     c     0.667453    0.225969    0.507857    0.000000
     7  O     c     0.167452    0.225969    0.735655    0.000000
     8  O     c     0.832548    0.774031    0.735655    0.000000
     9  O     c     0.667452    0.274031    0.007857    0.000000
    10  O     c     0.332548    0.725969    0.007857    0.000000
    11  O     c     0.832548    0.725968    0.235654    0.000000
    12  O     c     0.167452    0.274032    0.235654    0.000000
--------------------------------------------------------------------------------

  Final Cartesian lattice vectors (Angstroms) :

        4.935659    0.005429    0.000000
       -0.004975    4.522186    0.000000
        0.000000   -0.000000    5.379247


  Final cell parameters and derivatives :

--------------------------------------------------------------------------------
       a            4.935662 Angstrom     dE/de1(xx)     0.000031 eV/strain
       b            4.522188 Angstrom     dE/de2(yy)    -0.000015 eV/strain
       c            5.379247 Angstrom     dE/de3(zz)     0.000078 eV/strain
       alpha       90.000000 Degrees      dE/de4(yz)     0.000000 eV/strain
       beta        90.000000 Degrees      dE/de5(xz)    -0.000000 eV/strain
       gamma       90.000000 Degrees      dE/de6(xy)     0.000038 eV/strain
--------------------------------------------------------------------------------

  Primitive cell volume =           120.064759 Angs**3

  Density of cell =      4.419147 g/cm**3

  Non-primitive cell volume =           120.064759 Angs**3


  Final internal derivatives :

--------------------------------------------------------------------------------
   No.  Atomic          a             b             c           Radius
        Label          (eV)          (eV)          (eV)        (eV/Angs)
--------------------------------------------------------------------------------
      1 Ti    c       0.000000      0.000000      0.000000      0.000000
      2 Ti    c      -0.000000     -0.000000     -0.000075      0.000000
      3 Ti    c      -0.000000     -0.000000      0.000046      0.000000
      4 Ti    c       0.000000     -0.000000      0.000112      0.000000
      5 O     c      -0.000106     -0.000152      0.000020      0.000000
      6 O     c       0.000106      0.000152      0.000020      0.000000
      7 O     c      -0.000214      0.000209      0.000285      0.000000
      8 O     c       0.000214     -0.000209      0.000285      0.000000
      9 O     c      -0.000146     -0.000191      0.000145      0.000000
     10 O     c       0.000146      0.000191      0.000145      0.000000
     11 O     c      -0.000041     -0.000217     -0.000572      0.000000
     12 O     c       0.000041      0.000217     -0.000572      0.000000
--------------------------------------------------------------------------------
  Maximum abs         0.000214      0.000217      0.000572      0.000000
--------------------------------------------------------------------------------


  Time to end of optimisation =       0.8963 seconds


  Peak dynamic memory used =       1.84 MB 


  Timing analysis for GULP :

--------------------------------------------------------------------------------
  Task / Subroutine                                          Time (Seconds)
--------------------------------------------------------------------------------
  Calculation of reciprocal space energy and derivatives          0.0436
  Calculation of real space energy and derivatives                0.8366
  Calculation and manipulation of Hessian matrix                  0.0003
  Calculation of matrix inversion                                 0.0006
  Global summation overhead                                       0.0002
--------------------------------------------------------------------------------
  Total CPU time                                                  0.8963
--------------------------------------------------------------------------------


  Job Finished at 10:53.49 29th May        2024                               

