********************************************************************************
*                       GENERAL UTILITY LATTICE PROGRAM                        *
*                                 Julian Gale                                  *
*                       Curtin Institute for Computation                       *
*                    School of Molecular and Life Sciences                     *
*                    Curtin University, Western Australia                      *
********************************************************************************
* Version = 6.0.0 * Last modified =  12th July 2021                            *
********************************************************************************
*  optimise     - perform optimisation run                                     *
*  conp         - constant pressure calculation                                *
*  conjugate    - use conjugate gradients minimiser                            *
********************************************************************************

  Job Started  at 10:53.52 29th May        2024                               

  Number of CPUs =     1


  Total number of configurations input =      1

********************************************************************************
*  Input for Configuration =   1                                               *
********************************************************************************

  Formula = Ti4O8                                                       

  Number of irreducible atoms/shells =      12


  Total number atoms/shells =      12

  Dimensionality = 3               :  Bulk   



  Cartesian lattice vectors (Angstroms) :

        4.904782    0.000000    0.000000
        0.000000    6.517728    0.000000
        0.000000    0.000000    3.421907

  Cell parameters (Angstroms/Degrees):

  a =       4.9048    alpha =  90.0000
  b =       6.5177    beta  =  90.0000
  c =       3.4219    gamma =  90.0000

  Initial cell volume =         109.391625 Angs**3

  Temperature of configuration =   0.00     K 

  Pressure of configuration =         0.000 GPa 

  Fractional coordinates of asymmetric unit :

--------------------------------------------------------------------------------
   No.  Atomic       x           y          z         Charge      Occupancy
        Label      (Frac)      (Frac)     (Frac)        (e)         (Frac)  
--------------------------------------------------------------------------------
      1 Ti    c    0.250000    0.250000    0.750000     2.19600    1.000000    
      2 Ti    c    0.250000 *  0.750000 *  0.250000 *   2.19600    1.000000    
      3 Ti    c    0.750000 *  0.250000 *  0.250000 *   2.19600    1.000000    
      4 Ti    c    0.750000 *  0.750000 *  0.750000 *   2.19600    1.000000    
      5 O     c    0.000000 *  0.000000 *  0.000000 *  -1.09800    1.000000    
      6 O     c    0.000000 *  0.500000 *  0.500000 *  -1.09800    1.000000    
      7 O     c    0.500000 *  0.000000 *  0.500000 *  -1.09800    1.000000    
      8 O     c    0.500000 *  0.500000 *  0.000000 *  -1.09800    1.000000    
      9 O     c    0.000000 *  0.000000 *  0.500000 *  -1.09800    1.000000    
     10 O     c    0.000000 *  0.500000 *  0.000000 *  -1.09800    1.000000    
     11 O     c    0.500000 *  0.000000 *  0.000000 *  -1.09800    1.000000    
     12 O     c    0.500000 *  0.500000 *  0.500000 *  -1.09800    1.000000    
--------------------------------------------------------------------------------



********************************************************************************
*  General input information                                                   *
********************************************************************************

  Species output for all configurations : 

--------------------------------------------------------------------------------
  Species    Type    Atomic    Atomic    Charge       Radii (Angs)     Library
                     Number     Mass       (e)     Cova   Ionic  VDW   Symbol
--------------------------------------------------------------------------------
    Ti       Core       22      47.88   2.196000   1.470  0.000  2.190          
    O        Core        8      16.00  -1.098000   0.730  0.000  1.360          
--------------------------------------------------------------------------------


  Lattice summation method               =    Ewald          (3-D)
                                         =    Parry          (2-D)
                                         =    Saunders et al (1-D)
  Accuracy factor for lattice sums       =   12.000


  Analytic derivatives to be used

  Time limit = Infinity

  Maximum range for interatomic potentials =    100000.000000 Angstroms

  General interatomic potentials :

--------------------------------------------------------------------------------
Atom  Types   Potential      Parameter       Value         Units   Cutoffs(Ang)
  1     2                                                            Min /  Max 
--------------------------------------------------------------------------------
Ti   c Ti   c Buckingham    Buckingham A     31120.100    eV        0.000 15.000
                            Buckingham rho  0.15400000    Ang       
                            Buckingham C     5.2500000    eV*Ang^6  
--------------------------------------------------------------------------------
O    c O    c Buckingham    Buckingham A     11782.700    eV        0.000 15.000
                            Buckingham rho  0.23400000    Ang       
                            Buckingham C     30.220000    eV*Ang^6  
--------------------------------------------------------------------------------
O    c Ti   c Buckingham    Buckingham A     16957.500    eV        0.000 15.000
                            Buckingham rho  0.19400000    Ang       
                            Buckingham C     12.590000    eV*Ang^6  
--------------------------------------------------------------------------------
Ti   c Ti   c Lennard       Lennard-Jones A  1.0000000    eV*Ang^m  0.000 15.000
                            Lennard-Jones B  0.0000000    eV*Ang^n  
                            Exponent m        12          None
                            Exponent n         6          None
--------------------------------------------------------------------------------
O    c O    c Lennard       Lennard-Jones A  1.0000000    eV*Ang^m  0.000 15.000
                            Lennard-Jones B  0.0000000    eV*Ang^n  
                            Exponent m        12          None
                            Exponent n         6          None
--------------------------------------------------------------------------------
O    c Ti   c Lennard       Lennard-Jones A  1.0000000    eV*Ang^m  0.000 15.000
                            Lennard-Jones B  0.0000000    eV*Ang^n  
                            Exponent m        12          None
                            Exponent n         6          None
--------------------------------------------------------------------------------

********************************************************************************
*  Output for configuration   1                                                *
********************************************************************************


  Components of energy : 

--------------------------------------------------------------------------------
  Interatomic potentials     =          55.61647223 eV    
  Monopole - monopole (real) =         -36.98950840 eV    
  Monopole - monopole (recip)=        -105.49620317 eV    
  Monopole - monopole (total)=        -142.48571157 eV    
--------------------------------------------------------------------------------
  Total lattice energy       =         -86.86923934 eV    
--------------------------------------------------------------------------------
  Total lattice energy       =           -8381.5537 kJ/(mole unit cells)
--------------------------------------------------------------------------------


  Number of variables =       39

  Maximum number of calculations  =          1000
  Maximum Hessian update interval =            10
  Maximum step size               =   1.000000000
  Maximum parameter tolerance     =   0.000010000
  Maximum function  tolerance     =   0.000010000
  Maximum gradient  tolerance     =   0.001000000
  Maximum gradient  component     =   0.010000000

  Symmetry not applied to optimisation

  Cell parameters to be optimised using strains

  Conjugate gradient optimiser to be used

  Lower half triangular hessian to be used

  Minimiser to switch to BFGS with exact hessian
  When gradient norm is less than     0.500000

  Start of bulk optimisation :

  Cycle:      0 Energy:       -86.869239  Gnorm:     11.631534  CPU:    0.022
  Cycle:      1 Energy:      -151.127448  Gnorm:      1.521257  CPU:    0.060
  Cycle:      2 Energy:      -156.359919  Gnorm:      0.584593  CPU:    0.087
  Cycle:      3 Energy:      -156.373095  Gnorm:      0.563050  CPU:    0.111
  Cycle:      4 Energy:      -156.825099  Gnorm:      0.193108  CPU:    0.139
  ** Hessian calculated **
  Cycle:      5 Energy:      -156.884781  Gnorm:      0.002183  CPU:    0.209


  **** Optimisation achieved ****


  Final energy =    -156.88478768 eV      
  Final Gnorm  =       0.00009552

  Components of energy : 

--------------------------------------------------------------------------------
  Interatomic potentials     =          11.24469810 eV    
  Monopole - monopole (real) =         -61.74203987 eV    
  Monopole - monopole (recip)=        -106.38744592 eV    
  Monopole - monopole (total)=        -168.12948578 eV    
--------------------------------------------------------------------------------
  Total lattice energy       =        -156.88478768 eV    
--------------------------------------------------------------------------------
  Total lattice energy       =          -15136.9838 kJ/(mole unit cells)
--------------------------------------------------------------------------------

  Final fractional coordinates of atoms :

--------------------------------------------------------------------------------
   No.  Atomic        x           y          z          Radius
        Label       (Frac)      (Frac)     (Frac)       (Angs) 
--------------------------------------------------------------------------------
     1  Ti    c     0.250000    0.250000    0.750000    0.000000
     2  Ti    c     0.250000    0.750000    0.250000    0.000000
     3  Ti    c     0.750000    0.250000    0.250000    0.000000
     4  Ti    c     0.750000    0.750000    0.750000    0.000000
     5  O     c     0.000000    0.000000    0.000000    0.000000
     6  O     c     0.000000    0.500000    0.500000    0.000000
     7  O     c     0.500000    0.000000    0.500000    0.000000
     8  O     c     0.500000    0.500000    0.000000    0.000000
     9  O     c     0.000000    0.000000    0.500000    0.000000
    10  O     c     0.000000    0.500000    0.000000    0.000000
    11  O     c     0.500000    0.000000    0.000000    0.000000
    12  O     c     0.500000    0.500000    0.500000    0.000000
--------------------------------------------------------------------------------

  Final Cartesian lattice vectors (Angstroms) :

        4.806187    0.000000    0.000000
        0.000000    4.806187    0.000000
        0.000000    0.000000    4.806204


  Final cell parameters and derivatives :

--------------------------------------------------------------------------------
       a            4.806187 Angstrom     dE/de1(xx)     0.001489 eV/strain
       b            4.806187 Angstrom     dE/de2(yy)     0.001466 eV/strain
       c            4.806204 Angstrom     dE/de3(zz)     0.003084 eV/strain
       alpha       90.000000 Degrees      dE/de4(yz)     0.000000 eV/strain
       beta        90.000000 Degrees      dE/de5(xz)    -0.000000 eV/strain
       gamma       90.000000 Degrees      dE/de6(xy)     0.000000 eV/strain
--------------------------------------------------------------------------------

  Primitive cell volume =           111.020588 Angs**3

  Density of cell =      4.779149 g/cm**3

  Non-primitive cell volume =           111.020588 Angs**3


  Final internal derivatives :

--------------------------------------------------------------------------------
   No.  Atomic          a             b             c           Radius
        Label          (eV)          (eV)          (eV)        (eV/Angs)
--------------------------------------------------------------------------------
      1 Ti    c       0.000000      0.000000      0.000000      0.000000
      2 Ti    c      -0.000000      0.000000     -0.000000      0.000000
      3 Ti    c       0.000000     -0.000000      0.000000      0.000000
      4 Ti    c      -0.000000      0.000000      0.000000      0.000000
      5 O     c       0.000000      0.000000     -0.000000      0.000000
      6 O     c       0.000000     -0.000000     -0.000000      0.000000
      7 O     c       0.000000      0.000000     -0.000000      0.000000
      8 O     c      -0.000000     -0.000000      0.000000      0.000000
      9 O     c      -0.000000     -0.000000     -0.000000      0.000000
     10 O     c       0.000000     -0.000000     -0.000000      0.000000
     11 O     c       0.000000      0.000000      0.000000      0.000000
     12 O     c      -0.000000     -0.000000     -0.000000      0.000000
--------------------------------------------------------------------------------
  Maximum abs         0.000000      0.000000      0.000000      0.000000
--------------------------------------------------------------------------------


  Time to end of optimisation =       0.2331 seconds


  Peak dynamic memory used =       1.84 MB 


  Timing analysis for GULP :

--------------------------------------------------------------------------------
  Task / Subroutine                                          Time (Seconds)
--------------------------------------------------------------------------------
  Calculation of reciprocal space energy and derivatives          0.0091
  Calculation of real space energy and derivatives                0.2131
  Calculation of matrix inversion                                 0.0002
--------------------------------------------------------------------------------
  Total CPU time                                                  0.2331
--------------------------------------------------------------------------------


  Job Finished at 10:53.53 29th May        2024                               

