********************************************************************************
*                       GENERAL UTILITY LATTICE PROGRAM                        *
*                                 Julian Gale                                  *
*                       Curtin Institute for Computation                       *
*                    School of Molecular and Life Sciences                     *
*                    Curtin University, Western Australia                      *
********************************************************************************
* Version = 6.0.0 * Last modified =  12th July 2021                            *
********************************************************************************
*  optimise     - perform optimisation run                                     *
*  conp         - constant pressure calculation                                *
*  conjugate    - use conjugate gradients minimiser                            *
********************************************************************************

  Job Started  at 10:53.41 29th May        2024                               

  Number of CPUs =     1


  Total number of configurations input =      1

********************************************************************************
*  Input for Configuration =   1                                               *
********************************************************************************

  Formula = Ti4O8                                                       

  Number of irreducible atoms/shells =      12


  Total number atoms/shells =      12

  Dimensionality = 3               :  Bulk   



  Cartesian lattice vectors (Angstroms) :

        4.011142    0.000000   -2.788399
        0.000000    4.760090    0.000000
        0.000000    0.000000    5.445473

  Cell parameters (Angstroms/Degrees):

  a =       4.8851    alpha =  90.0000
  b =       4.7601    beta  = 124.8056
  c =       5.4455    gamma =  90.0000

  Initial cell volume =         103.972589 Angs**3

  Temperature of configuration =   0.00     K 

  Pressure of configuration =         0.000 GPa 

  Fractional coordinates of asymmetric unit :

--------------------------------------------------------------------------------
   No.  Atomic       x           y          z         Charge      Occupancy
        Label      (Frac)      (Frac)     (Frac)        (e)         (Frac)  
--------------------------------------------------------------------------------
      1 Ti    c    0.000000    0.263330    0.250000     2.19600    1.000000    
      2 Ti    c    0.000000 *  0.736670 *  0.750000 *   2.19600    1.000000    
      3 Ti    c    0.000000 *  0.500000 *  0.000000 *   2.19600    1.000000    
      4 Ti    c    0.000000 *  0.500000 *  0.500000 *   2.19600    1.000000    
      5 O     c    0.028728 *  0.868159 *  0.450034 *  -1.09800    1.000000    
      6 O     c    0.971272 *  0.868159 *  0.049966 *  -1.09800    1.000000    
      7 O     c    0.971272 *  0.131841 *  0.549966 *  -1.09800    1.000000    
      8 O     c    0.028728 *  0.131841 *  0.950034 *  -1.09800    1.000000    
      9 O     c    0.500000 *  0.016967 *  0.250000 *  -1.09800    1.000000    
     10 O     c    0.500000 *  0.983033 *  0.750000 *  -1.09800    1.000000    
     11 O     c    0.500000 *  0.500000 *  0.000000 *  -1.09800    1.000000    
     12 O     c    0.500000 *  0.500000 *  0.500000 *  -1.09800    1.000000    
--------------------------------------------------------------------------------



********************************************************************************
*  General input information                                                   *
********************************************************************************

  Species output for all configurations : 

--------------------------------------------------------------------------------
  Species    Type    Atomic    Atomic    Charge       Radii (Angs)     Library
                     Number     Mass       (e)     Cova   Ionic  VDW   Symbol
--------------------------------------------------------------------------------
    Ti       Core       22      47.88   2.196000   1.470  0.000  2.190          
    O        Core        8      16.00  -1.098000   0.730  0.000  1.360          
--------------------------------------------------------------------------------


  Lattice summation method               =    Ewald          (3-D)
                                         =    Parry          (2-D)
                                         =    Saunders et al (1-D)
  Accuracy factor for lattice sums       =   12.000


  Analytic derivatives to be used

  Time limit = Infinity

  Maximum range for interatomic potentials =    100000.000000 Angstroms

  General interatomic potentials :

--------------------------------------------------------------------------------
Atom  Types   Potential      Parameter       Value         Units   Cutoffs(Ang)
  1     2                                                            Min /  Max 
--------------------------------------------------------------------------------
Ti   c Ti   c Buckingham    Buckingham A     31120.100    eV        0.000 15.000
                            Buckingham rho  0.15400000    Ang       
                            Buckingham C     5.2500000    eV*Ang^6  
--------------------------------------------------------------------------------
O    c O    c Buckingham    Buckingham A     11782.700    eV        0.000 15.000
                            Buckingham rho  0.23400000    Ang       
                            Buckingham C     30.220000    eV*Ang^6  
--------------------------------------------------------------------------------
O    c Ti   c Buckingham    Buckingham A     16957.500    eV        0.000 15.000
                            Buckingham rho  0.19400000    Ang       
                            Buckingham C     12.590000    eV*Ang^6  
--------------------------------------------------------------------------------
Ti   c Ti   c Lennard       Lennard-Jones A  1.0000000    eV*Ang^m  0.000 15.000
                            Lennard-Jones B  0.0000000    eV*Ang^n  
                            Exponent m        12          None
                            Exponent n         6          None
--------------------------------------------------------------------------------
O    c O    c Lennard       Lennard-Jones A  1.0000000    eV*Ang^m  0.000 15.000
                            Lennard-Jones B  0.0000000    eV*Ang^n  
                            Exponent m        12          None
                            Exponent n         6          None
--------------------------------------------------------------------------------
O    c Ti   c Lennard       Lennard-Jones A  1.0000000    eV*Ang^m  0.000 15.000
                            Lennard-Jones B  0.0000000    eV*Ang^n  
                            Exponent m        12          None
                            Exponent n         6          None
--------------------------------------------------------------------------------

********************************************************************************
*  Output for configuration   1                                                *
********************************************************************************


  Components of energy : 

--------------------------------------------------------------------------------
  Interatomic potentials     =          61.84930300 eV    
  Monopole - monopole (real) =          -7.36980568 eV    
  Monopole - monopole (recip)=         -96.70861685 eV    
  Monopole - monopole (total)=        -104.07842253 eV    
--------------------------------------------------------------------------------
  Total lattice energy       =         -42.22911953 eV    
--------------------------------------------------------------------------------
  Total lattice energy       =           -4074.4645 kJ/(mole unit cells)
--------------------------------------------------------------------------------


  Number of variables =       39

  Maximum number of calculations  =          1000
  Maximum Hessian update interval =            10
  Maximum step size               =   1.000000000
  Maximum parameter tolerance     =   0.000010000
  Maximum function  tolerance     =   0.000010000
  Maximum gradient  tolerance     =   0.001000000
  Maximum gradient  component     =   0.010000000

  Symmetry not applied to optimisation

  Cell parameters to be optimised using strains

  Conjugate gradient optimiser to be used

  Lower half triangular hessian to be used

  Minimiser to switch to BFGS with exact hessian
  When gradient norm is less than     0.500000

  Start of bulk optimisation :

  Cycle:      0 Energy:       -42.229120  Gnorm:     25.561541  CPU:    0.026
  Cycle:      1 Energy:       -80.902772  Gnorm:      8.847461  CPU:    0.063
  Cycle:      2 Energy:       -99.733509  Gnorm:      5.934490  CPU:    0.104
  Cycle:      3 Energy:      -123.075629  Gnorm:      3.233111  CPU:    0.140
  Cycle:      4 Energy:      -129.094082  Gnorm:      2.371048  CPU:    0.169
  Cycle:      5 Energy:      -130.663523  Gnorm:      2.072318  CPU:    0.191
  Cycle:      6 Energy:      -133.706779  Gnorm:      1.758739  CPU:    0.218
  Cycle:      7 Energy:      -136.887919  Gnorm:      2.628645  CPU:    0.245
  Cycle:      8 Energy:      -138.733283  Gnorm:      1.657607  CPU:    0.269
  Cycle:      9 Energy:      -140.912307  Gnorm:      2.357536  CPU:    0.297
  Cycle:     10 Energy:      -141.848216  Gnorm:      1.320661  CPU:    0.325
  Cycle:     11 Energy:      -143.144343  Gnorm:      1.397995  CPU:    0.353
  Cycle:     12 Energy:      -144.419455  Gnorm:      1.851947  CPU:    0.378
  Cycle:     13 Energy:      -145.457747  Gnorm:      2.045110  CPU:    0.402
  Cycle:     14 Energy:      -146.794758  Gnorm:      2.103254  CPU:    0.427
  Cycle:     15 Energy:      -147.810069  Gnorm:      2.479332  CPU:    0.452
  Cycle:     16 Energy:      -150.703552  Gnorm:      1.729051  CPU:    0.492
  Cycle:     17 Energy:      -151.426261  Gnorm:      1.380445  CPU:    0.520
  Cycle:     18 Energy:      -152.133219  Gnorm:      0.769900  CPU:    0.553
  Cycle:     19 Energy:      -152.433272  Gnorm:      0.728991  CPU:    0.588
  Cycle:     20 Energy:      -152.610177  Gnorm:      0.570651  CPU:    0.615
  Cycle:     21 Energy:      -152.804311  Gnorm:      0.673371  CPU:    0.642
  Cycle:     22 Energy:      -153.010023  Gnorm:      0.632705  CPU:    0.670
  Cycle:     23 Energy:      -153.358569  Gnorm:      0.278661  CPU:    0.704
  ** Hessian calculated **
  Cycle:     24 Energy:      -153.552181  Gnorm:      0.037541  CPU:    0.779
  Cycle:     25 Energy:      -153.554443  Gnorm:      0.006272  CPU:    0.806
  Cycle:     26 Energy:      -153.554538  Gnorm:      0.000899  CPU:    0.842


  **** Optimisation achieved ****


  Final energy =    -153.55453929 eV      
  Final Gnorm  =       0.00018471

  Components of energy : 

--------------------------------------------------------------------------------
  Interatomic potentials     =          12.05446423 eV    
  Monopole - monopole (real) =         -64.25133438 eV    
  Monopole - monopole (recip)=        -101.35766914 eV    
  Monopole - monopole (total)=        -165.60900352 eV    
--------------------------------------------------------------------------------
  Total lattice energy       =        -153.55453929 eV    
--------------------------------------------------------------------------------
  Total lattice energy       =          -14815.6657 kJ/(mole unit cells)
--------------------------------------------------------------------------------

  Final fractional coordinates of atoms :

--------------------------------------------------------------------------------
   No.  Atomic        x           y          z          Radius
        Label       (Frac)      (Frac)     (Frac)       (Angs) 
--------------------------------------------------------------------------------
     1  Ti    c     0.000000    0.263330    0.250000    0.000000
     2  Ti    c     0.000000    0.054492    0.750000    0.000000
     3  Ti    c     0.000005    0.658912    0.000004    0.000000
     4  Ti    c     0.999995    0.658912    0.499996    0.000000
     5  O     c     0.999995    0.883789    0.517569    0.000000
     6  O     c     0.000005    0.883789    0.982431    0.000000
     7  O     c     0.999999    0.434035    0.482427    0.000000
     8  O     c     0.000001    0.434035    0.017573    0.000000
     9  O     c     0.500000    0.158909    0.250000    0.000000
    10  O     c     0.500000    0.158913    0.750000    0.000000
    11  O     c     0.500002    0.658912    0.000003    0.000000
    12  O     c     0.499998    0.658912    0.499997    0.000000
--------------------------------------------------------------------------------

  Final Cartesian lattice vectors (Angstroms) :

        2.771106    0.000000   -2.762905
        0.000000    8.181654   -0.000000
        0.069639   -0.000000    5.454175


  Final cell parameters and derivatives :

--------------------------------------------------------------------------------
       a            3.913141 Angstrom     dE/de1(xx)    -0.000964 eV/strain
       b            8.181654 Angstrom     dE/de2(yy)     0.000526 eV/strain
       c            5.454619 Angstrom     dE/de3(zz)    -0.000643 eV/strain
       alpha       90.000000 Degrees      dE/de4(yz)    -0.000000 eV/strain
       beta       134.183579 Degrees      dE/de5(xz)     0.000357 eV/strain
       gamma       90.000000 Degrees      dE/de6(xy)     0.000000 eV/strain
--------------------------------------------------------------------------------

  Primitive cell volume =           125.232513 Angs**3

  Density of cell =      4.236790 g/cm**3

  Non-primitive cell volume =           125.232513 Angs**3


  Final internal derivatives :

--------------------------------------------------------------------------------
   No.  Atomic          a             b             c           Radius
        Label          (eV)          (eV)          (eV)        (eV/Angs)
--------------------------------------------------------------------------------
      1 Ti    c       0.000000      0.000000      0.000000      0.000000
      2 Ti    c       0.000000      0.003451     -0.000000      0.000000
      3 Ti    c       0.000475     -0.000546      0.001861      0.000000
      4 Ti    c      -0.000475     -0.000546     -0.001861      0.000000
      5 O     c      -0.000281     -0.000091     -0.000703      0.000000
      6 O     c       0.000281     -0.000091      0.000703      0.000000
      7 O     c      -0.000285      0.001401      0.000774      0.000000
      8 O     c       0.000285      0.001401     -0.000774      0.000000
      9 O     c      -0.000000     -0.002900      0.000000      0.000000
     10 O     c      -0.000000      0.001285     -0.000000      0.000000
     11 O     c      -0.000553      0.000375      0.002536      0.000000
     12 O     c       0.000553      0.000375     -0.002536      0.000000
--------------------------------------------------------------------------------
  Maximum abs         0.000553      0.003451      0.002536      0.000000
--------------------------------------------------------------------------------


  Time to end of optimisation =       0.8694 seconds


  Peak dynamic memory used =       1.84 MB 


  Timing analysis for GULP :

--------------------------------------------------------------------------------
  Task / Subroutine                                          Time (Seconds)
--------------------------------------------------------------------------------
  Calculation of reciprocal space energy and derivatives          0.0318
  Calculation of real space energy and derivatives                0.8228
  Calculation and manipulation of Hessian matrix                  0.0001
  Calculation of matrix inversion                                 0.0002
  Global summation overhead                                       0.0002
--------------------------------------------------------------------------------
  Total CPU time                                                  0.8695
--------------------------------------------------------------------------------


  Job Finished at 10:53.42 29th May        2024                               

