********************************************************************************
*                       GENERAL UTILITY LATTICE PROGRAM                        *
*                                 Julian Gale                                  *
*                       Curtin Institute for Computation                       *
*                    School of Molecular and Life Sciences                     *
*                    Curtin University, Western Australia                      *
********************************************************************************
* Version = 6.0.0 * Last modified =  12th July 2021                            *
********************************************************************************
*  optimise     - perform optimisation run                                     *
*  conp         - constant pressure calculation                                *
*  conjugate    - use conjugate gradients minimiser                            *
********************************************************************************

  Job Started  at 10:53.21 29th May        2024                               

  Number of CPUs =     1


  Total number of configurations input =      1

********************************************************************************
*  Input for Configuration =   1                                               *
********************************************************************************

  Formula = Ti4O8                                                       

  Number of irreducible atoms/shells =      12


  Total number atoms/shells =      12

  Dimensionality = 3               :  Bulk   



  Cartesian lattice vectors (Angstroms) :

        5.323661    0.000000   -1.914172
        0.000000    4.644319    0.000000
        0.000000    0.000000    4.301238

  Cell parameters (Angstroms/Degrees):

  a =       5.6573    alpha =  90.0000
  b =       4.6443    beta  = 109.7765
  c =       4.3012    gamma =  90.0000

  Initial cell volume =         106.347162 Angs**3

  Temperature of configuration =   0.00     K 

  Pressure of configuration =         0.000 GPa 

  Fractional coordinates of asymmetric unit :

--------------------------------------------------------------------------------
   No.  Atomic       x           y          z         Charge      Occupancy
        Label      (Frac)      (Frac)     (Frac)        (e)         (Frac)  
--------------------------------------------------------------------------------
      1 Ti    c    0.500000    0.724069    0.500000     2.19600    1.000000    
      2 Ti    c    0.173060 *  0.623646 *  0.703328 *   2.19600    1.000000    
      3 Ti    c    0.826940 *  0.623646 *  0.296672 *   2.19600    1.000000    
      4 Ti    c    0.500000 *  0.134067 *  0.500000 *   2.19600    1.000000    
      5 O     c    0.500000 *  0.232965 *  0.000000 *  -1.09800    1.000000    
      6 O     c    0.171342 *  0.672004 *  0.363779 *  -1.09800    1.000000    
      7 O     c    0.828658 *  0.672004 *  0.636221 *  -1.09800    1.000000    
      8 O     c    0.089012 *  0.946835 *  0.953646 *  -1.09800    1.000000    
      9 O     c    0.910988 *  0.946835 *  0.046354 *  -1.09800    1.000000    
     10 O     c    0.234394 *  0.184269 *  0.366432 *  -1.09800    1.000000    
     11 O     c    0.765606 *  0.184269 *  0.633568 *  -1.09800    1.000000    
     12 O     c    0.000000 *  0.414526 *  0.500000 *  -1.09800    1.000000    
--------------------------------------------------------------------------------



********************************************************************************
*  General input information                                                   *
********************************************************************************

  Species output for all configurations : 

--------------------------------------------------------------------------------
  Species    Type    Atomic    Atomic    Charge       Radii (Angs)     Library
                     Number     Mass       (e)     Cova   Ionic  VDW   Symbol
--------------------------------------------------------------------------------
    Ti       Core       22      47.88   2.196000   1.470  0.000  2.190          
    O        Core        8      16.00  -1.098000   0.730  0.000  1.360          
--------------------------------------------------------------------------------


  Lattice summation method               =    Ewald          (3-D)
                                         =    Parry          (2-D)
                                         =    Saunders et al (1-D)
  Accuracy factor for lattice sums       =   12.000


  Analytic derivatives to be used

  Time limit = Infinity

  Maximum range for interatomic potentials =    100000.000000 Angstroms

  General interatomic potentials :

--------------------------------------------------------------------------------
Atom  Types   Potential      Parameter       Value         Units   Cutoffs(Ang)
  1     2                                                            Min /  Max 
--------------------------------------------------------------------------------
Ti   c Ti   c Buckingham    Buckingham A     31120.100    eV        0.000 15.000
                            Buckingham rho  0.15400000    Ang       
                            Buckingham C     5.2500000    eV*Ang^6  
--------------------------------------------------------------------------------
O    c O    c Buckingham    Buckingham A     11782.700    eV        0.000 15.000
                            Buckingham rho  0.23400000    Ang       
                            Buckingham C     30.220000    eV*Ang^6  
--------------------------------------------------------------------------------
O    c Ti   c Buckingham    Buckingham A     16957.500    eV        0.000 15.000
                            Buckingham rho  0.19400000    Ang       
                            Buckingham C     12.590000    eV*Ang^6  
--------------------------------------------------------------------------------
Ti   c Ti   c Lennard       Lennard-Jones A  1.0000000    eV*Ang^m  0.000 15.000
                            Lennard-Jones B  0.0000000    eV*Ang^n  
                            Exponent m        12          None
                            Exponent n         6          None
--------------------------------------------------------------------------------
O    c O    c Lennard       Lennard-Jones A  1.0000000    eV*Ang^m  0.000 15.000
                            Lennard-Jones B  0.0000000    eV*Ang^n  
                            Exponent m        12          None
                            Exponent n         6          None
--------------------------------------------------------------------------------
O    c Ti   c Lennard       Lennard-Jones A  1.0000000    eV*Ang^m  0.000 15.000
                            Lennard-Jones B  0.0000000    eV*Ang^n  
                            Exponent m        12          None
                            Exponent n         6          None
--------------------------------------------------------------------------------

********************************************************************************
*  Output for configuration   1                                                *
********************************************************************************


  Components of energy : 

--------------------------------------------------------------------------------
  Interatomic potentials     =         139.49000702 eV    
  Monopole - monopole (real) =         -39.21003173 eV    
  Monopole - monopole (recip)=         -96.20560940 eV    
  Monopole - monopole (total)=        -135.41564114 eV    
--------------------------------------------------------------------------------
  Total lattice energy       =           4.07436589 eV    
--------------------------------------------------------------------------------
  Total lattice energy       =             393.1140 kJ/(mole unit cells)
--------------------------------------------------------------------------------


  Number of variables =       39

  Maximum number of calculations  =          1000
  Maximum Hessian update interval =            10
  Maximum step size               =   1.000000000
  Maximum parameter tolerance     =   0.000010000
  Maximum function  tolerance     =   0.000010000
  Maximum gradient  tolerance     =   0.001000000
  Maximum gradient  component     =   0.010000000

  Symmetry not applied to optimisation

  Cell parameters to be optimised using strains

  Conjugate gradient optimiser to be used

  Lower half triangular hessian to be used

  Minimiser to switch to BFGS with exact hessian
  When gradient norm is less than     0.500000

  Start of bulk optimisation :

  Cycle:      0 Energy:         4.074366  Gnorm:     61.427907  CPU:    0.025
  Cycle:      1 Energy:      -102.123076  Gnorm:      6.815452  CPU:    0.075
  Cycle:      2 Energy:      -127.746837  Gnorm:      3.379870  CPU:    0.112
  Cycle:      3 Energy:      -131.363720  Gnorm:      1.751237  CPU:    0.133
  Cycle:      4 Energy:      -134.003307  Gnorm:      1.503917  CPU:    0.159
  Cycle:      5 Energy:      -137.344103  Gnorm:      1.593415  CPU:    0.184
  Cycle:      6 Energy:      -139.532930  Gnorm:      1.533982  CPU:    0.205
  Cycle:      7 Energy:      -140.996612  Gnorm:      1.116743  CPU:    0.226
  Cycle:      8 Energy:      -142.289720  Gnorm:      0.681454  CPU:    0.251
  Cycle:      9 Energy:      -143.198770  Gnorm:      0.686581  CPU:    0.275
  Cycle:     10 Energy:      -143.548242  Gnorm:      0.385818  CPU:    0.295
  ** Hessian calculated **
  Cycle:     11 Energy:      -143.673133  Gnorm:      0.278190  CPU:    0.347
  Cycle:     12 Energy:      -143.702599  Gnorm:      0.313044  CPU:    0.365
  ** Hessian calculated **
  Cycle:     13 Energy:      -143.862049  Gnorm:      0.247924  CPU:    0.413
  Cycle:     14 Energy:      -143.940878  Gnorm:      0.234093  CPU:    0.430
  ** Hessian calculated **
  Cycle:     15 Energy:      -143.969784  Gnorm:      0.125578  CPU:    0.473
  Cycle:     16 Energy:      -143.989449  Gnorm:      0.153787  CPU:    0.494
  Cycle:     17 Energy:      -144.175632  Gnorm:      0.669846  CPU:    0.523
  Cycle:     18 Energy:      -144.396039  Gnorm:      1.569882  CPU:    0.544
  ** Hessian calculated **
  Cycle:     19 Energy:      -145.727275  Gnorm:      1.332571  CPU:    0.591
  Cycle:     20 Energy:      -149.694268  Gnorm:      1.903961  CPU:    0.618
  Cycle:     21 Energy:      -151.203012  Gnorm:      1.329734  CPU:    0.636
  Cycle:     22 Energy:      -152.134317  Gnorm:      1.007283  CPU:    0.654
  Cycle:     23 Energy:      -152.340836  Gnorm:      0.720789  CPU:    0.677
  Cycle:     24 Energy:      -152.750029  Gnorm:      0.338887  CPU:    0.700
  Cycle:     25 Energy:      -152.892907  Gnorm:      0.278278  CPU:    0.718
  Cycle:     26 Energy:      -153.011374  Gnorm:      0.305753  CPU:    0.741
  Cycle:     27 Energy:      -153.097549  Gnorm:      0.195211  CPU:    0.764
  Cycle:     28 Energy:      -153.124491  Gnorm:      0.095299  CPU:    0.782
  ** Hessian calculated **
  Cycle:     29 Energy:      -153.135799  Gnorm:      0.005338  CPU:    0.831
  Cycle:     30 Energy:      -153.135817  Gnorm:      0.000204  CPU:    0.850


  **** Optimisation achieved ****


  Final energy =    -153.13581764 eV      
  Final Gnorm  =       0.00005365

  Components of energy : 

--------------------------------------------------------------------------------
  Interatomic potentials     =          13.36077367 eV    
  Monopole - monopole (real) =         -78.37234791 eV    
  Monopole - monopole (recip)=         -88.12424339 eV    
  Monopole - monopole (total)=        -166.49659130 eV    
--------------------------------------------------------------------------------
  Total lattice energy       =        -153.13581764 eV    
--------------------------------------------------------------------------------
  Total lattice energy       =          -14775.2655 kJ/(mole unit cells)
--------------------------------------------------------------------------------

  Final fractional coordinates of atoms :

--------------------------------------------------------------------------------
   No.  Atomic        x           y          z          Radius
        Label       (Frac)      (Frac)     (Frac)       (Angs) 
--------------------------------------------------------------------------------
     1  Ti    c     0.500000    0.724069    0.500000    0.000000
     2  Ti    c     0.245019    0.474784    0.766629    0.000000
     3  Ti    c     0.754981    0.474784    0.233371    0.000000
     4  Ti    c     0.500000    0.114193    0.500000    0.000000
     5  O     c     0.500000    0.596472    1.000000    0.000000
     6  O     c     0.272313    0.576185    0.290768    0.000000
     7  O     c     0.727687    0.576185    0.709232    0.000000
     8  O     c     0.377982    0.922019    0.609096    0.000000
     9  O     c     0.622018    0.922019    0.390904    0.000000
    10  O     c     0.355806    0.266328    0.068897    0.000000
    11  O     c     0.644194    0.266328    0.931103    0.000000
    12  O     c     1.000000    0.441616    0.500000    0.000000
--------------------------------------------------------------------------------

  Final Cartesian lattice vectors (Angstroms) :

        7.843564   -0.000000   -2.140956
        0.000000    7.438002    0.000000
       -0.551772   -0.000000    3.436103


  Final cell parameters and derivatives :

--------------------------------------------------------------------------------
       a            8.130510 Angstrom     dE/de1(xx)     0.000353 eV/strain
       b            7.438002 Angstrom     dE/de2(yy)     0.000197 eV/strain
       c            3.480123 Angstrom     dE/de3(zz)     0.000308 eV/strain
       alpha       90.000000 Degrees      dE/de4(yz)    -0.000000 eV/strain
       beta       114.390081 Degrees      dE/de5(xz)    -0.000056 eV/strain
       gamma       90.000000 Degrees      dE/de6(xy)     0.000000 eV/strain
--------------------------------------------------------------------------------

  Primitive cell volume =           191.677148 Angs**3

  Density of cell =      2.768112 g/cm**3

  Non-primitive cell volume =           191.677148 Angs**3


  Final internal derivatives :

--------------------------------------------------------------------------------
   No.  Atomic          a             b             c           Radius
        Label          (eV)          (eV)          (eV)        (eV/Angs)
--------------------------------------------------------------------------------
      1 Ti    c       0.000000      0.000000      0.000000      0.000000
      2 Ti    c       0.000575      0.000059     -0.000054      0.000000
      3 Ti    c      -0.000575      0.000059      0.000054      0.000000
      4 Ti    c       0.000000      0.001155     -0.000000      0.000000
      5 O     c       0.000000      0.000212     -0.000000      0.000000
      6 O     c      -0.000510      0.000190      0.000088      0.000000
      7 O     c       0.000510      0.000190     -0.000088      0.000000
      8 O     c      -0.000380     -0.000186      0.000067      0.000000
      9 O     c       0.000380     -0.000186     -0.000067      0.000000
     10 O     c       0.000055     -0.000731      0.000082      0.000000
     11 O     c      -0.000055     -0.000731     -0.000082      0.000000
     12 O     c      -0.000000      0.000006      0.000000      0.000000
--------------------------------------------------------------------------------
  Maximum abs         0.000575      0.001155      0.000088      0.000000
--------------------------------------------------------------------------------


  Time to end of optimisation =       0.8687 seconds


  Peak dynamic memory used =       1.84 MB 


  Timing analysis for GULP :

--------------------------------------------------------------------------------
  Task / Subroutine                                          Time (Seconds)
--------------------------------------------------------------------------------
  Calculation of reciprocal space energy and derivatives          0.0467
  Calculation of real space energy and derivatives                0.8041
  Calculation and manipulation of Hessian matrix                  0.0005
  Calculation of matrix inversion                                 0.0010
  Global summation overhead                                       0.0002
--------------------------------------------------------------------------------
  Total CPU time                                                  0.8688
--------------------------------------------------------------------------------


  Job Finished at 10:53.22 29th May        2024                               

