********************************************************************************
*                       GENERAL UTILITY LATTICE PROGRAM                        *
*                                 Julian Gale                                  *
*                       Curtin Institute for Computation                       *
*                    School of Molecular and Life Sciences                     *
*                    Curtin University, Western Australia                      *
********************************************************************************
* Version = 6.0.0 * Last modified =  12th July 2021                            *
********************************************************************************
*  optimise     - perform optimisation run                                     *
*  conp         - constant pressure calculation                                *
*  conjugate    - use conjugate gradients minimiser                            *
********************************************************************************

  Job Started  at 10:54.11 29th May        2024                               

  Number of CPUs =     1


  Total number of configurations input =      1

********************************************************************************
*  Input for Configuration =   1                                               *
********************************************************************************

  Formula = Ti4O8                                                       

  Number of irreducible atoms/shells =      12


  Total number atoms/shells =      12

  Dimensionality = 3               :  Bulk   



  Cartesian lattice vectors (Angstroms) :

        5.085074    0.000000    0.000000
        0.000000    5.508927    0.000000
        0.000000    0.000000    5.881675

  Cell parameters (Angstroms/Degrees):

  a =       5.0851    alpha =  90.0000
  b =       5.5089    beta  =  90.0000
  c =       5.8817    gamma =  90.0000

  Initial cell volume =         164.765131 Angs**3

  Temperature of configuration =   0.00     K 

  Pressure of configuration =         0.000 GPa 

  Fractional coordinates of asymmetric unit :

--------------------------------------------------------------------------------
   No.  Atomic       x           y          z         Charge      Occupancy
        Label      (Frac)      (Frac)     (Frac)        (e)         (Frac)  
--------------------------------------------------------------------------------
      1 Ti    c    0.500000    0.000000    0.734818     2.19600    1.000000    
      2 Ti    c    0.500000 *  0.500000 *  0.234818 *   2.19600    1.000000    
      3 Ti    c    0.000000 *  0.000000 *  0.933541 *   2.19600    1.000000    
      4 Ti    c    0.000000 *  0.500000 *  0.433541 *   2.19600    1.000000    
      5 O     c    0.500000 *  0.000000 *  0.218666 *  -1.09800    1.000000    
      6 O     c    0.500000 *  0.500000 *  0.718666 *  -1.09800    1.000000    
      7 O     c    0.424309 *  0.350548 *  0.672240 *  -1.09800    1.000000    
      8 O     c    0.575691 *  0.649452 *  0.672240 *  -1.09800    1.000000    
      9 O     c    0.424309 *  0.149452 *  0.172240 *  -1.09800    1.000000    
     10 O     c    0.575691 *  0.850548 *  0.172240 *  -1.09800    1.000000    
     11 O     c    0.000000 *  0.000000 *  0.649731 *  -1.09800    1.000000    
     12 O     c    0.000000 *  0.500000 *  0.149731 *  -1.09800    1.000000    
--------------------------------------------------------------------------------



********************************************************************************
*  General input information                                                   *
********************************************************************************

  Species output for all configurations : 

--------------------------------------------------------------------------------
  Species    Type    Atomic    Atomic    Charge       Radii (Angs)     Library
                     Number     Mass       (e)     Cova   Ionic  VDW   Symbol
--------------------------------------------------------------------------------
    Ti       Core       22      47.88   2.196000   1.470  0.000  2.190          
    O        Core        8      16.00  -1.098000   0.730  0.000  1.360          
--------------------------------------------------------------------------------


  Lattice summation method               =    Ewald          (3-D)
                                         =    Parry          (2-D)
                                         =    Saunders et al (1-D)
  Accuracy factor for lattice sums       =   12.000


  Analytic derivatives to be used

  Time limit = Infinity

  Maximum range for interatomic potentials =    100000.000000 Angstroms

  General interatomic potentials :

--------------------------------------------------------------------------------
Atom  Types   Potential      Parameter       Value         Units   Cutoffs(Ang)
  1     2                                                            Min /  Max 
--------------------------------------------------------------------------------
Ti   c Ti   c Buckingham    Buckingham A     31120.100    eV        0.000 15.000
                            Buckingham rho  0.15400000    Ang       
                            Buckingham C     5.2500000    eV*Ang^6  
--------------------------------------------------------------------------------
O    c O    c Buckingham    Buckingham A     11782.700    eV        0.000 15.000
                            Buckingham rho  0.23400000    Ang       
                            Buckingham C     30.220000    eV*Ang^6  
--------------------------------------------------------------------------------
O    c Ti   c Buckingham    Buckingham A     16957.500    eV        0.000 15.000
                            Buckingham rho  0.19400000    Ang       
                            Buckingham C     12.590000    eV*Ang^6  
--------------------------------------------------------------------------------
Ti   c Ti   c Lennard       Lennard-Jones A  1.0000000    eV*Ang^m  0.000 15.000
                            Lennard-Jones B  0.0000000    eV*Ang^n  
                            Exponent m        12          None
                            Exponent n         6          None
--------------------------------------------------------------------------------
O    c O    c Lennard       Lennard-Jones A  1.0000000    eV*Ang^m  0.000 15.000
                            Lennard-Jones B  0.0000000    eV*Ang^n  
                            Exponent m        12          None
                            Exponent n         6          None
--------------------------------------------------------------------------------
O    c Ti   c Lennard       Lennard-Jones A  1.0000000    eV*Ang^m  0.000 15.000
                            Lennard-Jones B  0.0000000    eV*Ang^n  
                            Exponent m        12          None
                            Exponent n         6          None
--------------------------------------------------------------------------------

********************************************************************************
*  Output for configuration   1                                                *
********************************************************************************


  Components of energy : 

--------------------------------------------------------------------------------
  Interatomic potentials     =         671.81596608 eV    
  Monopole - monopole (real) =          -5.26719200 eV    
  Monopole - monopole (recip)=         -90.52523862 eV    
  Monopole - monopole (total)=         -95.79243062 eV    
--------------------------------------------------------------------------------
  Total lattice energy       =         576.02353547 eV    
--------------------------------------------------------------------------------
  Total lattice energy       =           55577.4658 kJ/(mole unit cells)
--------------------------------------------------------------------------------


  Number of variables =       39

  Maximum number of calculations  =          1000
  Maximum Hessian update interval =            10
  Maximum step size               =   1.000000000
  Maximum parameter tolerance     =   0.000010000
  Maximum function  tolerance     =   0.000010000
  Maximum gradient  tolerance     =   0.001000000
  Maximum gradient  component     =   0.010000000

  Symmetry not applied to optimisation

  Cell parameters to be optimised using strains

  Conjugate gradient optimiser to be used

  Lower half triangular hessian to be used

  Minimiser to switch to BFGS with exact hessian
  When gradient norm is less than     0.500000

  Start of bulk optimisation :

  Cycle:      0 Energy:       576.023535  Gnorm:    211.583422  CPU:    0.019
  Cycle:      1 Energy:      -111.094396  Gnorm:      3.993135  CPU:    0.054
  Cycle:      2 Energy:      -118.488597  Gnorm:      1.730663  CPU:    0.070
  Cycle:      3 Energy:      -125.935194  Gnorm:      3.154270  CPU:    0.099
  Cycle:      4 Energy:      -127.980513  Gnorm:      3.946217  CPU:    0.119
  Cycle:      5 Energy:      -132.052539  Gnorm:      1.500228  CPU:    0.136
  Cycle:      6 Energy:      -136.799965  Gnorm:      0.955473  CPU:    0.162
  Cycle:      7 Energy:      -137.531042  Gnorm:      1.033853  CPU:    0.180
  Cycle:      8 Energy:      -138.308250  Gnorm:      0.826755  CPU:    0.198
  Cycle:      9 Energy:      -139.321049  Gnorm:      1.174032  CPU:    0.220
  Cycle:     10 Energy:      -140.301780  Gnorm:      0.802441  CPU:    0.241
  Cycle:     11 Energy:      -142.999145  Gnorm:      1.321332  CPU:    0.270
  Cycle:     12 Energy:      -145.509222  Gnorm:      2.289444  CPU:    0.295
  Cycle:     13 Energy:      -147.504283  Gnorm:      1.540531  CPU:    0.327
  Cycle:     14 Energy:      -149.218548  Gnorm:      0.515964  CPU:    0.351
  Cycle:     15 Energy:      -149.817793  Gnorm:      0.623349  CPU:    0.386
  Cycle:     16 Energy:      -150.199209  Gnorm:      0.431866  CPU:    0.407
  ** Hessian calculated **
  Cycle:     17 Energy:      -150.665170  Gnorm:      0.478230  CPU:    0.476
  Cycle:     18 Energy:      -151.235870  Gnorm:      0.338739  CPU:    0.505
  Cycle:     19 Energy:      -151.407149  Gnorm:      0.320765  CPU:    0.530
  Cycle:     20 Energy:      -151.644381  Gnorm:      0.356868  CPU:    0.562
  Cycle:     21 Energy:      -152.102154  Gnorm:      0.588105  CPU:    0.594
  Cycle:     22 Energy:      -153.261521  Gnorm:      0.670025  CPU:    0.632
  Cycle:     23 Energy:      -153.743867  Gnorm:      0.491902  CPU:    0.663
  Cycle:     24 Energy:      -154.029395  Gnorm:      0.346190  CPU:    0.689
  Cycle:     25 Energy:      -154.168032  Gnorm:      0.271510  CPU:    0.716
  Cycle:     26 Energy:      -154.248456  Gnorm:      0.164583  CPU:    0.741
  ** Hessian calculated **
  Cycle:     27 Energy:      -154.305403  Gnorm:      0.026366  CPU:    0.813
  Cycle:     28 Energy:      -154.307077  Gnorm:      0.008255  CPU:    0.838
  Cycle:     29 Energy:      -154.307448  Gnorm:      0.002727  CPU:    0.864
  Cycle:     30 Energy:      -154.307459  Gnorm:      0.002604  CPU:    0.896
  Cycle:     31 Energy:      -154.307460  Gnorm:      0.002368  CPU:    0.933
  Cycle:     32 Energy:      -154.307461  Gnorm:      0.002199  CPU:    0.982
  Cycle:     33 Energy:      -154.258650  Gnorm:      0.140919  CPU:    1.036
  ** Hessian calculated **
  Cycle:     34 Energy:      -154.266313  Gnorm:      0.129433  CPU:    1.125
  Cycle:     35 Energy:      -154.275415  Gnorm:      0.114230  CPU:    1.163
  Cycle:     36 Energy:      -154.286623  Gnorm:      0.092239  CPU:    1.200
  Cycle:     37 Energy:      -154.298891  Gnorm:      0.059234  CPU:    1.237
  Cycle:     38 Energy:      -154.306531  Gnorm:      0.019903  CPU:    1.269
  Cycle:     39 Energy:      -154.307457  Gnorm:      0.000795  CPU:    1.295


  **** Optimisation achieved ****


  Final energy =    -154.30745877 eV      
  Final Gnorm  =       0.00003545

  Components of energy : 

--------------------------------------------------------------------------------
  Interatomic potentials     =          12.11428431 eV    
  Monopole - monopole (real) =         -64.06967491 eV    
  Monopole - monopole (recip)=        -102.35206818 eV    
  Monopole - monopole (total)=        -166.42174308 eV    
--------------------------------------------------------------------------------
  Total lattice energy       =        -154.30745877 eV    
--------------------------------------------------------------------------------
  Total lattice energy       =          -14888.3110 kJ/(mole unit cells)
--------------------------------------------------------------------------------

  Final fractional coordinates of atoms :

--------------------------------------------------------------------------------
   No.  Atomic        x           y          z          Radius
        Label       (Frac)      (Frac)     (Frac)       (Angs) 
--------------------------------------------------------------------------------
     1  Ti    c     0.500000    0.000000    0.734818    0.000000
     2  Ti    c     0.500000    0.500000    0.033931    0.000000
     3  Ti    c     0.000000    0.000000    0.242525    0.000000
     4  Ti    c     0.000000    0.500000    0.541637    0.000000
     5  O     c     0.500000    0.000000    0.382689    0.000000
     6  O     c     0.500000    0.500000    0.635301    0.000000
     7  O     c     0.124659    0.330653    0.295218    0.000000
     8  O     c     0.875341    0.669347    0.295218    0.000000
     9  O     c     0.375341    0.169347    0.981237    0.000000
    10  O     c     0.624659    0.830653    0.981237    0.000000
    11  O     c     0.000000    0.000000    0.641155    0.000000
    12  O     c     1.000000    0.500000    0.893766    0.000000
--------------------------------------------------------------------------------

  Final Cartesian lattice vectors (Angstroms) :

        3.571437   -0.524857    0.000000
       -0.871477    6.036778    0.000000
       -0.000000   -0.000000    5.888951


  Final cell parameters and derivatives :

--------------------------------------------------------------------------------
       a            3.609797 Angstrom     dE/de1(xx)    -0.000390 eV/strain
       b            6.099358 Angstrom     dE/de2(yy)     0.000225 eV/strain
       c            5.888951 Angstrom     dE/de3(zz)     0.000102 eV/strain
       alpha       90.000000 Degrees      dE/de4(yz)     0.000000 eV/strain
       beta        90.000000 Degrees      dE/de5(xz)     0.000000 eV/strain
       gamma      106.574862 Degrees      dE/de6(xy)     0.000162 eV/strain
--------------------------------------------------------------------------------

  Primitive cell volume =           124.272032 Angs**3

  Density of cell =      4.269536 g/cm**3

  Non-primitive cell volume =           124.272032 Angs**3


  Final internal derivatives :

--------------------------------------------------------------------------------
   No.  Atomic          a             b             c           Radius
        Label          (eV)          (eV)          (eV)        (eV/Angs)
--------------------------------------------------------------------------------
      1 Ti    c       0.000000      0.000000      0.000000      0.000000
      2 Ti    c       0.000000     -0.000000     -0.000111      0.000000
      3 Ti    c      -0.000000      0.000000      0.000106      0.000000
      4 Ti    c      -0.000000      0.000000      0.000544      0.000000
      5 O     c       0.000000     -0.000000      0.000031      0.000000
      6 O     c       0.000000     -0.000000     -0.000735      0.000000
      7 O     c       0.000113     -0.000210     -0.000088      0.000000
      8 O     c      -0.000113      0.000210     -0.000088      0.000000
      9 O     c      -0.000115      0.000218      0.000093      0.000000
     10 O     c       0.000115     -0.000218      0.000093      0.000000
     11 O     c      -0.000000      0.000000      0.000737      0.000000
     12 O     c      -0.000000      0.000000     -0.000027      0.000000
--------------------------------------------------------------------------------
  Maximum abs         0.000115      0.000218      0.000737      0.000000
--------------------------------------------------------------------------------


  Time to end of optimisation =       1.3210 seconds


  Peak dynamic memory used =       1.84 MB 


  Timing analysis for GULP :

--------------------------------------------------------------------------------
  Task / Subroutine                                          Time (Seconds)
--------------------------------------------------------------------------------
  Calculation of reciprocal space energy and derivatives          0.0554
  Calculation of real space energy and derivatives                1.2462
  Calculation and manipulation of Hessian matrix                  0.0003
  Calculation of matrix inversion                                 0.0006
  Global summation overhead                                       0.0003
--------------------------------------------------------------------------------
  Total CPU time                                                  1.3211
--------------------------------------------------------------------------------


  Job Finished at 10:54.13 29th May        2024                               

