********************************************************************************
*                       GENERAL UTILITY LATTICE PROGRAM                        *
*                                 Julian Gale                                  *
*                       Curtin Institute for Computation                       *
*                    School of Molecular and Life Sciences                     *
*                    Curtin University, Western Australia                      *
********************************************************************************
* Version = 6.0.0 * Last modified =  12th July 2021                            *
********************************************************************************
*  optimise     - perform optimisation run                                     *
*  conp         - constant pressure calculation                                *
*  conjugate    - use conjugate gradients minimiser                            *
********************************************************************************

  Job Started  at 10:53.38 29th May        2024                               

  Number of CPUs =     1


  Total number of configurations input =      1

********************************************************************************
*  Input for Configuration =   1                                               *
********************************************************************************

  Formula = Ti4O8                                                       

  Number of irreducible atoms/shells =      12


  Total number atoms/shells =      12

  Dimensionality = 3               :  Bulk   



  Cartesian lattice vectors (Angstroms) :

        6.714091    0.000000   -2.328028
        0.000000    6.625791    0.000000
        0.000000    0.000000    3.078726

  Cell parameters (Angstroms/Degrees):

  a =       7.1062    alpha =  90.0000
  b =       6.6258    beta  = 109.1234
  c =       3.0787    gamma =  90.0000

  Initial cell volume =         136.960725 Angs**3

  Temperature of configuration =   0.00     K 

  Pressure of configuration =         0.000 GPa 

  Fractional coordinates of asymmetric unit :

--------------------------------------------------------------------------------
   No.  Atomic       x           y          z         Charge      Occupancy
        Label      (Frac)      (Frac)     (Frac)        (e)         (Frac)  
--------------------------------------------------------------------------------
      1 Ti    c    0.906035    0.402206    0.903363     2.19600    1.000000    
      2 Ti    c    0.093965 *  0.902206 *  0.096637 *   2.19600    1.000000    
      3 Ti    c    0.093965 *  0.597794 *  0.096637 *   2.19600    1.000000    
      4 Ti    c    0.906035 *  0.097794 *  0.903363 *   2.19600    1.000000    
      5 O     c    0.763972 *  0.250000 *  0.815832 *  -1.09800    1.000000    
      6 O     c    0.236028 *  0.750000 *  0.184168 *  -1.09800    1.000000    
      7 O     c    0.796179 *  0.509766 *  0.001922 *  -1.09800    1.000000    
      8 O     c    0.203821 *  0.009766 *  0.998078 *  -1.09800    1.000000    
      9 O     c    0.203821 *  0.490234 *  0.998078 *  -1.09800    1.000000    
     10 O     c    0.796179 *  0.990234 *  0.001922 *  -1.09800    1.000000    
     11 O     c    0.000000 *  0.000000 *  0.500000 *  -1.09800    1.000000    
     12 O     c    0.000000 *  0.500000 *  0.500000 *  -1.09800    1.000000    
--------------------------------------------------------------------------------



********************************************************************************
*  General input information                                                   *
********************************************************************************

  Species output for all configurations : 

--------------------------------------------------------------------------------
  Species    Type    Atomic    Atomic    Charge       Radii (Angs)     Library
                     Number     Mass       (e)     Cova   Ionic  VDW   Symbol
--------------------------------------------------------------------------------
    Ti       Core       22      47.88   2.196000   1.470  0.000  2.190          
    O        Core        8      16.00  -1.098000   0.730  0.000  1.360          
--------------------------------------------------------------------------------


  Lattice summation method               =    Ewald          (3-D)
                                         =    Parry          (2-D)
                                         =    Saunders et al (1-D)
  Accuracy factor for lattice sums       =   12.000


  Analytic derivatives to be used

  Time limit = Infinity

  Maximum range for interatomic potentials =    100000.000000 Angstroms

  General interatomic potentials :

--------------------------------------------------------------------------------
Atom  Types   Potential      Parameter       Value         Units   Cutoffs(Ang)
  1     2                                                            Min /  Max 
--------------------------------------------------------------------------------
Ti   c Ti   c Buckingham    Buckingham A     31120.100    eV        0.000 15.000
                            Buckingham rho  0.15400000    Ang       
                            Buckingham C     5.2500000    eV*Ang^6  
--------------------------------------------------------------------------------
O    c O    c Buckingham    Buckingham A     11782.700    eV        0.000 15.000
                            Buckingham rho  0.23400000    Ang       
                            Buckingham C     30.220000    eV*Ang^6  
--------------------------------------------------------------------------------
O    c Ti   c Buckingham    Buckingham A     16957.500    eV        0.000 15.000
                            Buckingham rho  0.19400000    Ang       
                            Buckingham C     12.590000    eV*Ang^6  
--------------------------------------------------------------------------------
Ti   c Ti   c Lennard       Lennard-Jones A  1.0000000    eV*Ang^m  0.000 15.000
                            Lennard-Jones B  0.0000000    eV*Ang^n  
                            Exponent m        12          None
                            Exponent n         6          None
--------------------------------------------------------------------------------
O    c O    c Lennard       Lennard-Jones A  1.0000000    eV*Ang^m  0.000 15.000
                            Lennard-Jones B  0.0000000    eV*Ang^n  
                            Exponent m        12          None
                            Exponent n         6          None
--------------------------------------------------------------------------------
O    c Ti   c Lennard       Lennard-Jones A  1.0000000    eV*Ang^m  0.000 15.000
                            Lennard-Jones B  0.0000000    eV*Ang^n  
                            Exponent m        12          None
                            Exponent n         6          None
--------------------------------------------------------------------------------

********************************************************************************
*  Output for configuration   1                                                *
********************************************************************************


  Components of energy : 

--------------------------------------------------------------------------------
  Interatomic potentials     =         244.46407172 eV    
  Monopole - monopole (real) =         -92.12835565 eV    
  Monopole - monopole (recip)=         -93.16238338 eV    
  Monopole - monopole (total)=        -185.29073903 eV    
--------------------------------------------------------------------------------
  Total lattice energy       =          59.17333269 eV    
--------------------------------------------------------------------------------
  Total lattice energy       =            5709.3221 kJ/(mole unit cells)
--------------------------------------------------------------------------------


  Number of variables =       39

  Maximum number of calculations  =          1000
  Maximum Hessian update interval =            10
  Maximum step size               =   1.000000000
  Maximum parameter tolerance     =   0.000010000
  Maximum function  tolerance     =   0.000010000
  Maximum gradient  tolerance     =   0.001000000
  Maximum gradient  component     =   0.010000000

  Symmetry not applied to optimisation

  Cell parameters to be optimised using strains

  Conjugate gradient optimiser to be used

  Lower half triangular hessian to be used

  Minimiser to switch to BFGS with exact hessian
  When gradient norm is less than     0.500000

  Start of bulk optimisation :

  Cycle:      0 Energy:        59.173333  Gnorm:     87.475672  CPU:    0.022
  Cycle:      1 Energy:       -81.353268  Gnorm:      8.022283  CPU:    0.055
  Cycle:      2 Energy:       -99.626429  Gnorm:      9.347812  CPU:    0.080
  Cycle:      3 Energy:      -110.380572  Gnorm:      5.278582  CPU:    0.100
  Cycle:      4 Energy:      -123.262745  Gnorm:      5.143779  CPU:    0.122
  Cycle:      5 Energy:      -132.261286  Gnorm:      3.697266  CPU:    0.143
  Cycle:      6 Energy:      -135.296254  Gnorm:      3.366642  CPU:    0.159
  Cycle:      7 Energy:      -137.030306  Gnorm:      2.378379  CPU:    0.175
  Cycle:      8 Energy:      -137.676456  Gnorm:      1.648028  CPU:    0.192
  Cycle:      9 Energy:      -138.803728  Gnorm:      1.380242  CPU:    0.212
  Cycle:     10 Energy:      -139.267308  Gnorm:      1.096382  CPU:    0.228
  Cycle:     11 Energy:      -139.645933  Gnorm:      1.057939  CPU:    0.248
  Cycle:     12 Energy:      -140.240336  Gnorm:      1.297677  CPU:    0.268
  Cycle:     13 Energy:      -140.623283  Gnorm:      1.312172  CPU:    0.284
  Cycle:     14 Energy:      -141.658755  Gnorm:      1.070715  CPU:    0.304
  Cycle:     15 Energy:      -141.964498  Gnorm:      1.075235  CPU:    0.319
  Cycle:     16 Energy:      -142.398852  Gnorm:      1.188734  CPU:    0.339
  Cycle:     17 Energy:      -142.801543  Gnorm:      1.396997  CPU:    0.354
  Cycle:     18 Energy:      -143.389380  Gnorm:      1.200302  CPU:    0.373
  Cycle:     19 Energy:      -143.803419  Gnorm:      1.071647  CPU:    0.392
  Cycle:     20 Energy:      -143.964093  Gnorm:      0.805033  CPU:    0.408
  Cycle:     21 Energy:      -144.159002  Gnorm:      1.132131  CPU:    0.427
  Cycle:     22 Energy:      -144.510445  Gnorm:      0.745311  CPU:    0.446
  Cycle:     23 Energy:      -144.783051  Gnorm:      1.047050  CPU:    0.465
  Cycle:     24 Energy:      -145.107491  Gnorm:      0.918294  CPU:    0.486
  Cycle:     25 Energy:      -145.266790  Gnorm:      0.675780  CPU:    0.501
  Cycle:     26 Energy:      -145.340717  Gnorm:      0.590638  CPU:    0.516
  Cycle:     27 Energy:      -145.466108  Gnorm:      0.680240  CPU:    0.535
  Cycle:     28 Energy:      -145.568283  Gnorm:      0.550754  CPU:    0.551
  Cycle:     29 Energy:      -145.618475  Gnorm:      0.532948  CPU:    0.566
  Cycle:     30 Energy:      -145.650661  Gnorm:      0.343895  CPU:    0.584
  ** Hessian calculated **
  Cycle:     31 Energy:      -145.841624  Gnorm:      0.601213  CPU:    0.625
  Cycle:     32 Energy:      -146.063488  Gnorm:      0.671015  CPU:    0.644
  Cycle:     33 Energy:      -146.352506  Gnorm:      0.792396  CPU:    0.667
  Cycle:     34 Energy:      -147.009416  Gnorm:      1.360324  CPU:    0.687
  ** Hessian calculated **
  Cycle:     35 Energy:      -147.610497  Gnorm:      0.433008  CPU:    0.727
  Cycle:     36 Energy:      -148.071765  Gnorm:      0.723403  CPU:    0.746
  Cycle:     37 Energy:      -148.785276  Gnorm:      0.854492  CPU:    0.767
  Cycle:     38 Energy:      -149.473685  Gnorm:      0.858692  CPU:    0.799
  Cycle:     39 Energy:      -149.960574  Gnorm:      0.857915  CPU:    0.824
  Cycle:     40 Energy:      -150.697311  Gnorm:      1.066338  CPU:    0.849
  Cycle:     41 Energy:      -151.459507  Gnorm:      0.949300  CPU:    0.882
  Cycle:     42 Energy:      -151.886160  Gnorm:      0.790176  CPU:    0.907
  Cycle:     43 Energy:      -152.333540  Gnorm:      0.764722  CPU:    0.930
  Cycle:     44 Energy:      -152.590065  Gnorm:      0.839801  CPU:    0.952
  ** Hessian calculated **
  Cycle:     45 Energy:      -152.860002  Gnorm:      0.372899  CPU:    1.006
  Cycle:     46 Energy:      -152.989351  Gnorm:      0.303268  CPU:    1.033
  Cycle:     47 Energy:      -153.107035  Gnorm:      0.329573  CPU:    1.060
  Cycle:     48 Energy:      -153.229581  Gnorm:      0.255052  CPU:    1.086
  Cycle:     49 Energy:      -153.306541  Gnorm:      0.355349  CPU:    1.108
  Cycle:     50 Energy:      -153.398795  Gnorm:      0.320051  CPU:    1.131
  Cycle:     51 Energy:      -153.527497  Gnorm:      0.491632  CPU:    1.155
  Cycle:     52 Energy:      -153.672425  Gnorm:      0.296638  CPU:    1.178
  Cycle:     53 Energy:      -153.759290  Gnorm:      0.257904  CPU:    1.197
  Cycle:     54 Energy:      -153.842463  Gnorm:      0.313020  CPU:    1.223
  ** Hessian calculated **
  Cycle:     55 Energy:      -154.281450  Gnorm:      0.547623  CPU:    1.285
  ** Hessian calculated **
  Cycle:     56 Energy:      -154.457186  Gnorm:      0.279652  CPU:    1.343
  Cycle:     57 Energy:      -154.534609  Gnorm:      0.380471  CPU:    1.364
  Cycle:     58 Energy:      -154.612228  Gnorm:      0.225190  CPU:    1.388
  Cycle:     59 Energy:      -154.690796  Gnorm:      0.384397  CPU:    1.413
  Cycle:     60 Energy:      -154.890572  Gnorm:      0.390218  CPU:    1.444
  Cycle:     61 Energy:      -155.042578  Gnorm:      0.496962  CPU:    1.464
  Cycle:     62 Energy:      -155.213631  Gnorm:      0.373288  CPU:    1.484
  Cycle:     63 Energy:      -155.397199  Gnorm:      0.399460  CPU:    1.509
  Cycle:     64 Energy:      -155.581667  Gnorm:      0.564294  CPU:    1.534
  Cycle:     65 Energy:      -155.861148  Gnorm:      0.463156  CPU:    1.564
  ** Hessian calculated **
  Cycle:     66 Energy:      -156.428387  Gnorm:      0.524219  CPU:    1.629
  Cycle:     67 Energy:      -156.625742  Gnorm:      0.245429  CPU:    1.653
  Cycle:     68 Energy:      -156.784417  Gnorm:      0.290588  CPU:    1.695
  Cycle:     69 Energy:      -156.841374  Gnorm:      0.416039  CPU:    1.719
  Cycle:     70 Energy:      -156.977923  Gnorm:      0.535656  CPU:    1.748
  Cycle:     71 Energy:      -157.024309  Gnorm:      0.423556  CPU:    1.777
  ** Hessian calculated **
  Cycle:     72 Energy:      -157.181009  Gnorm:      0.309193  CPU:    1.838
  Cycle:     73 Energy:      -157.264985  Gnorm:      0.290015  CPU:    1.868
  Cycle:     74 Energy:      -157.356091  Gnorm:      0.231213  CPU:    1.897
  Cycle:     75 Energy:      -157.476017  Gnorm:      0.345085  CPU:    1.927
  Cycle:     76 Energy:      -157.559009  Gnorm:      0.223817  CPU:    1.951
  Cycle:     77 Energy:      -157.615940  Gnorm:      0.231776  CPU:    1.975
  Cycle:     78 Energy:      -157.678446  Gnorm:      0.222728  CPU:    2.004
  Cycle:     79 Energy:      -157.753218  Gnorm:      0.190076  CPU:    2.035
  Cycle:     80 Energy:      -157.807272  Gnorm:      0.145066  CPU:    2.059
  Cycle:     81 Energy:      -157.846076  Gnorm:      0.161198  CPU:    2.088
  ** Hessian calculated **
  Cycle:     82 Energy:      -157.966733  Gnorm:      0.081134  CPU:    2.160
  Cycle:     83 Energy:      -157.982135  Gnorm:      0.057214  CPU:    2.184
  Cycle:     84 Energy:      -157.984110  Gnorm:      0.013908  CPU:    2.213
  Cycle:     85 Energy:      -157.984307  Gnorm:      0.003605  CPU:    2.243
  Cycle:     86 Energy:      -157.984317  Gnorm:      0.000663  CPU:    2.267


  **** Optimisation achieved ****


  Final energy =    -157.98431784 eV      
  Final Gnorm  =       0.00047778

  Components of energy : 

--------------------------------------------------------------------------------
  Interatomic potentials     =          12.75856858 eV    
  Monopole - monopole (real) =         -71.50968277 eV    
  Monopole - monopole (recip)=         -99.23320364 eV    
  Monopole - monopole (total)=        -170.74288641 eV    
--------------------------------------------------------------------------------
  Total lattice energy       =        -157.98431784 eV    
--------------------------------------------------------------------------------
  Total lattice energy       =          -15243.0717 kJ/(mole unit cells)
--------------------------------------------------------------------------------

  Final fractional coordinates of atoms :

--------------------------------------------------------------------------------
   No.  Atomic        x           y          z          Radius
        Label       (Frac)      (Frac)     (Frac)       (Angs) 
--------------------------------------------------------------------------------
     1  Ti    c     0.906035    0.402206    0.903363    0.000000
     2  Ti    c     0.906042    0.902200    0.403378    0.000000
     3  Ti    c     0.656112    0.652199    0.403357    0.000000
     4  Ti    c     0.656097    0.152207    0.903370    0.000000
     5  O     c     0.447992    0.360258    0.903364    0.000000
     6  O     c     0.448002    0.860253    0.403373    0.000000
     7  O     c     0.114150    0.694149    0.403362    0.000000
     8  O     c     0.114137    0.194152    0.903370    0.000000
     9  O     c     0.864081    0.444153    0.403363    0.000000
    10  O     c     0.864096    0.944148    0.903376    0.000000
    11  O     c     0.698044    0.110260    0.403372    0.000000
    12  O     c     0.698068    0.610251    0.903359    0.000000
--------------------------------------------------------------------------------

  Final Cartesian lattice vectors (Angstroms) :

        3.612878    0.776903   -0.749030
        1.707311   10.138858   -0.234972
        0.774653   -0.044895    3.689897


  Final cell parameters and derivatives :

--------------------------------------------------------------------------------
       a            3.770611 Angstrom     dE/de1(xx)     0.000166 eV/strain
       b           10.284287 Angstrom     dE/de2(yy)    -0.000196 eV/strain
       c            3.770603 Angstrom     dE/de3(zz)    -0.000269 eV/strain
       alpha       89.999468 Degrees      dE/de4(yz)    -0.000254 eV/strain
       beta        90.000000 Degrees      dE/de5(xz)    -0.000085 eV/strain
       gamma       68.485691 Degrees      dE/de6(xy)     0.001573 eV/strain
--------------------------------------------------------------------------------

  Primitive cell volume =           136.029110 Angs**3

  Density of cell =      3.900517 g/cm**3

  Non-primitive cell volume =           136.029110 Angs**3


  Final internal derivatives :

--------------------------------------------------------------------------------
   No.  Atomic          a             b             c           Radius
        Label          (eV)          (eV)          (eV)        (eV/Angs)
--------------------------------------------------------------------------------
      1 Ti    c       0.000000      0.000000      0.000000      0.000000
      2 Ti    c      -0.000842     -0.006924      0.000415      0.000000
      3 Ti    c       0.000207     -0.008940     -0.000307      0.000000
      4 Ti    c       0.000632      0.007920     -0.000492      0.000000
      5 O     c      -0.000989     -0.002280     -0.000054      0.000000
      6 O     c      -0.000322      0.001552     -0.000238      0.000000
      7 O     c       0.000333      0.002016      0.000166      0.000000
      8 O     c      -0.000645     -0.003209      0.000093      0.000000
      9 O     c      -0.000424      0.004756      0.000287      0.000000
     10 O     c       0.000065     -0.005681      0.000105      0.000000
     11 O     c       0.000355      0.006757      0.000275      0.000000
     12 O     c       0.000762     -0.005194      0.000033      0.000000
--------------------------------------------------------------------------------
  Maximum abs         0.000989      0.008940      0.000492      0.000000
--------------------------------------------------------------------------------


  Time to end of optimisation =       2.2910 seconds


  Peak dynamic memory used =       1.84 MB 


  Timing analysis for GULP :

--------------------------------------------------------------------------------
  Task / Subroutine                                          Time (Seconds)
--------------------------------------------------------------------------------
  Calculation of reciprocal space energy and derivatives          0.1240
  Calculation of real space energy and derivatives                2.1396
  Calculation and manipulation of Hessian matrix                  0.0009
  Calculation of matrix inversion                                 0.0015
  Global summation overhead                                       0.0005
--------------------------------------------------------------------------------
  Total CPU time                                                  2.2911
--------------------------------------------------------------------------------


  Job Finished at 10:53.40 29th May        2024                               

