********************************************************************************
*                       GENERAL UTILITY LATTICE PROGRAM                        *
*                                 Julian Gale                                  *
*                       Curtin Institute for Computation                       *
*                    School of Molecular and Life Sciences                     *
*                    Curtin University, Western Australia                      *
********************************************************************************
* Version = 6.0.0 * Last modified =  12th July 2021                            *
********************************************************************************
*  optimise     - perform optimisation run                                     *
*  conp         - constant pressure calculation                                *
*  conjugate    - use conjugate gradients minimiser                            *
********************************************************************************

  Job Started  at 10:53.42 29th May        2024                               

  Number of CPUs =     1


  Total number of configurations input =      1

********************************************************************************
*  Input for Configuration =   1                                               *
********************************************************************************

  Formula = Ti4O8                                                       

  Number of irreducible atoms/shells =      12


  Total number atoms/shells =      12

  Dimensionality = 3               :  Bulk   



  Cartesian lattice vectors (Angstroms) :

        4.389099    0.000000    2.307165
        0.000000    5.306477    0.000000
        0.000000    0.000000    6.259411

  Cell parameters (Angstroms/Degrees):

  a =       4.9585    alpha =  90.0000
  b =       5.3065    beta  =  62.2710
  c =       6.2594    gamma =  90.0000

  Initial cell volume =         145.785745 Angs**3

  Temperature of configuration =   0.00     K 

  Pressure of configuration =         0.000 GPa 

  Fractional coordinates of asymmetric unit :

--------------------------------------------------------------------------------
   No.  Atomic       x           y          z         Charge      Occupancy
        Label      (Frac)      (Frac)     (Frac)        (e)         (Frac)  
--------------------------------------------------------------------------------
      1 Ti    c    0.305030    0.294543    0.370101     2.19600    1.000000    
      2 Ti    c    0.694970 *  0.794543 *  0.129899 *   2.19600    1.000000    
      3 Ti    c    0.694970 *  0.705457 *  0.629899 *   2.19600    1.000000    
      4 Ti    c    0.305030 *  0.205457 *  0.870101 *   2.19600    1.000000    
      5 O     c    0.000000 *  0.000000 *  0.000000 *  -1.09800    1.000000    
      6 O     c    0.000000 *  0.500000 *  0.500000 *  -1.09800    1.000000    
      7 O     c    0.500000 *  0.000000 *  0.000000 *  -1.09800    1.000000    
      8 O     c    0.500000 *  0.500000 *  0.500000 *  -1.09800    1.000000    
      9 O     c    0.757624 *  0.340259 *  0.561014 *  -1.09800    1.000000    
     10 O     c    0.242376 *  0.840259 *  0.938986 *  -1.09800    1.000000    
     11 O     c    0.242376 *  0.659741 *  0.438986 *  -1.09800    1.000000    
     12 O     c    0.757624 *  0.159741 *  0.061014 *  -1.09800    1.000000    
--------------------------------------------------------------------------------



********************************************************************************
*  General input information                                                   *
********************************************************************************

  Species output for all configurations : 

--------------------------------------------------------------------------------
  Species    Type    Atomic    Atomic    Charge       Radii (Angs)     Library
                     Number     Mass       (e)     Cova   Ionic  VDW   Symbol
--------------------------------------------------------------------------------
    Ti       Core       22      47.88   2.196000   1.470  0.000  2.190          
    O        Core        8      16.00  -1.098000   0.730  0.000  1.360          
--------------------------------------------------------------------------------


  Lattice summation method               =    Ewald          (3-D)
                                         =    Parry          (2-D)
                                         =    Saunders et al (1-D)
  Accuracy factor for lattice sums       =   12.000


  Analytic derivatives to be used

  Time limit = Infinity

  Maximum range for interatomic potentials =    100000.000000 Angstroms

  General interatomic potentials :

--------------------------------------------------------------------------------
Atom  Types   Potential      Parameter       Value         Units   Cutoffs(Ang)
  1     2                                                            Min /  Max 
--------------------------------------------------------------------------------
Ti   c Ti   c Buckingham    Buckingham A     31120.100    eV        0.000 15.000
                            Buckingham rho  0.15400000    Ang       
                            Buckingham C     5.2500000    eV*Ang^6  
--------------------------------------------------------------------------------
O    c O    c Buckingham    Buckingham A     11782.700    eV        0.000 15.000
                            Buckingham rho  0.23400000    Ang       
                            Buckingham C     30.220000    eV*Ang^6  
--------------------------------------------------------------------------------
O    c Ti   c Buckingham    Buckingham A     16957.500    eV        0.000 15.000
                            Buckingham rho  0.19400000    Ang       
                            Buckingham C     12.590000    eV*Ang^6  
--------------------------------------------------------------------------------
Ti   c Ti   c Lennard       Lennard-Jones A  1.0000000    eV*Ang^m  0.000 15.000
                            Lennard-Jones B  0.0000000    eV*Ang^n  
                            Exponent m        12          None
                            Exponent n         6          None
--------------------------------------------------------------------------------
O    c O    c Lennard       Lennard-Jones A  1.0000000    eV*Ang^m  0.000 15.000
                            Lennard-Jones B  0.0000000    eV*Ang^n  
                            Exponent m        12          None
                            Exponent n         6          None
--------------------------------------------------------------------------------
O    c Ti   c Lennard       Lennard-Jones A  1.0000000    eV*Ang^m  0.000 15.000
                            Lennard-Jones B  0.0000000    eV*Ang^n  
                            Exponent m        12          None
                            Exponent n         6          None
--------------------------------------------------------------------------------

********************************************************************************
*  Output for configuration   1                                                *
********************************************************************************


  Components of energy : 

--------------------------------------------------------------------------------
  Interatomic potentials     =         153.50097382 eV    
  Monopole - monopole (real) =         -41.67665107 eV    
  Monopole - monopole (recip)=         -95.94249620 eV    
  Monopole - monopole (total)=        -137.61914727 eV    
--------------------------------------------------------------------------------
  Total lattice energy       =          15.88182655 eV    
--------------------------------------------------------------------------------
  Total lattice energy       =            1532.3535 kJ/(mole unit cells)
--------------------------------------------------------------------------------


  Number of variables =       39

  Maximum number of calculations  =          1000
  Maximum Hessian update interval =            10
  Maximum step size               =   1.000000000
  Maximum parameter tolerance     =   0.000010000
  Maximum function  tolerance     =   0.000010000
  Maximum gradient  tolerance     =   0.001000000
  Maximum gradient  component     =   0.010000000

  Symmetry not applied to optimisation

  Cell parameters to be optimised using strains

  Conjugate gradient optimiser to be used

  Lower half triangular hessian to be used

  Minimiser to switch to BFGS with exact hessian
  When gradient norm is less than     0.500000

  Start of bulk optimisation :

  Cycle:      0 Energy:        15.881827  Gnorm:     35.607802  CPU:    0.022
  Cycle:      1 Energy:      -136.129913  Gnorm:      1.983434  CPU:    0.065
  Cycle:      2 Energy:      -142.157353  Gnorm:      1.626054  CPU:    0.090
  Cycle:      3 Energy:      -144.857235  Gnorm:      3.569964  CPU:    0.112
  Cycle:      4 Energy:      -145.839959  Gnorm:      4.333049  CPU:    0.139
  Cycle:      5 Energy:      -149.389420  Gnorm:      1.222045  CPU:    0.162
  Cycle:      6 Energy:      -150.093900  Gnorm:      0.532748  CPU:    0.189
  Cycle:      7 Energy:      -150.418606  Gnorm:      0.444509  CPU:    0.216
  ** Hessian calculated **
  Cycle:      8 Energy:      -150.758694  Gnorm:      0.435109  CPU:    0.283
  ** Hessian calculated **
  Cycle:      9 Energy:      -151.259139  Gnorm:      0.383126  CPU:    0.347
  Cycle:     10 Energy:      -151.458756  Gnorm:      0.222088  CPU:    0.369
  Cycle:     11 Energy:      -151.518897  Gnorm:      0.212889  CPU:    0.391
  Cycle:     12 Energy:      -151.597909  Gnorm:      0.114202  CPU:    0.418
  Cycle:     13 Energy:      -151.613439  Gnorm:      0.188506  CPU:    0.440
  Cycle:     14 Energy:      -151.638505  Gnorm:      0.492489  CPU:    0.486
  Cycle:     15 Energy:      -151.657080  Gnorm:      0.731778  CPU:    0.526
  Cycle:     16 Energy:      -151.664781  Gnorm:      0.804319  CPU:    0.577
  Cycle:     17 Energy:      -151.700207  Gnorm:      0.800217  CPU:    0.627
  ** Hessian calculated **
  Cycle:     18 Energy:      -152.072262  Gnorm:      0.524646  CPU:    0.706
  Cycle:     19 Energy:      -152.306778  Gnorm:      0.401371  CPU:    0.756
  Cycle:     20 Energy:      -152.495747  Gnorm:      0.403694  CPU:    0.807
  Cycle:     21 Energy:      -152.722175  Gnorm:      0.392031  CPU:    0.861
  Cycle:     22 Energy:      -152.864526  Gnorm:      0.419686  CPU:    0.905
  Cycle:     23 Energy:      -153.005002  Gnorm:      0.394386  CPU:    0.949
  Cycle:     24 Energy:      -153.170931  Gnorm:      0.575677  CPU:    1.004
  Cycle:     25 Energy:      -153.417216  Gnorm:      0.551645  CPU:    1.069
  Cycle:     26 Energy:      -153.589748  Gnorm:      0.481100  CPU:    1.112
  Cycle:     27 Energy:      -153.769828  Gnorm:      0.497579  CPU:    1.155
  ** Hessian calculated **
  Cycle:     28 Energy:      -153.849978  Gnorm:      0.457829  CPU:    1.256
  ** Hessian calculated **
  Cycle:     29 Energy:      -153.960877  Gnorm:      0.307981  CPU:    1.338
  Cycle:     30 Energy:      -154.052160  Gnorm:      0.269074  CPU:    1.391
  Cycle:     31 Energy:      -154.157780  Gnorm:      0.377639  CPU:    1.444
  Cycle:     32 Energy:      -154.388287  Gnorm:      0.565348  CPU:    1.496
  Cycle:     33 Energy:      -154.736476  Gnorm:      0.567106  CPU:    1.536
  Cycle:     34 Energy:      -155.074968  Gnorm:      0.418924  CPU:    1.570
  Cycle:     35 Energy:      -155.196256  Gnorm:      0.343203  CPU:    1.603
  Cycle:     36 Energy:      -155.412324  Gnorm:      0.353763  CPU:    1.644
  Cycle:     37 Energy:      -155.561413  Gnorm:      0.275308  CPU:    1.673
  Cycle:     38 Energy:      -155.664710  Gnorm:      0.286938  CPU:    1.705
  ** Hessian calculated **
  Cycle:     39 Energy:      -156.025492  Gnorm:      0.385788  CPU:    1.798
  Cycle:     40 Energy:      -156.059319  Gnorm:      0.394807  CPU:    1.848
  ** Hessian calculated **
  Cycle:     41 Energy:      -156.455615  Gnorm:      0.317805  CPU:    1.945
  ** Hessian calculated **
  Cycle:     42 Energy:      -156.548035  Gnorm:      0.249372  CPU:    2.020
  Cycle:     43 Energy:      -156.604569  Gnorm:      0.170366  CPU:    2.061
  Cycle:     44 Energy:      -156.662008  Gnorm:      0.215678  CPU:    2.103
  Cycle:     45 Energy:      -156.734984  Gnorm:      0.220302  CPU:    2.145
  Cycle:     46 Energy:      -156.812510  Gnorm:      0.230942  CPU:    2.188
  Cycle:     47 Energy:      -156.897920  Gnorm:      0.298991  CPU:    2.231
  Cycle:     48 Energy:      -157.027057  Gnorm:      0.317877  CPU:    2.274
  Cycle:     49 Energy:      -157.181824  Gnorm:      0.279813  CPU:    2.309
  Cycle:     50 Energy:      -157.319660  Gnorm:      0.270166  CPU:    2.353
  Cycle:     51 Energy:      -157.398526  Gnorm:      0.229833  CPU:    2.388
  ** Hessian calculated **
  Cycle:     52 Energy:      -157.445097  Gnorm:      0.165387  CPU:    2.466
  Cycle:     53 Energy:      -157.486533  Gnorm:      0.173481  CPU:    2.509
  Cycle:     54 Energy:      -157.575779  Gnorm:      0.298239  CPU:    2.552
  Cycle:     55 Energy:      -157.718479  Gnorm:      0.308827  CPU:    2.596
  Cycle:     56 Energy:      -157.854934  Gnorm:      0.366873  CPU:    2.631
  Cycle:     57 Energy:      -157.947363  Gnorm:      0.264266  CPU:    2.667
  Cycle:     58 Energy:      -158.102804  Gnorm:      0.292404  CPU:    2.711
  Cycle:     59 Energy:      -158.212813  Gnorm:      0.297480  CPU:    2.747
  Cycle:     60 Energy:      -158.361384  Gnorm:      0.306046  CPU:    2.791
  Cycle:     61 Energy:      -158.568441  Gnorm:      0.447817  CPU:    2.836
  ** Hessian calculated **
  Cycle:     62 Energy:      -159.101271  Gnorm:      0.208974  CPU:    2.933
  Cycle:     63 Energy:      -159.194945  Gnorm:      0.043713  CPU:    2.987
  Cycle:     64 Energy:      -159.200789  Gnorm:      0.017181  CPU:    3.023
  Cycle:     65 Energy:      -159.201393  Gnorm:      0.004103  CPU:    3.068
  Cycle:     66 Energy:      -159.201426  Gnorm:      0.001295  CPU:    3.105


  **** Optimisation achieved ****


  Final energy =    -159.20142934 eV      
  Final Gnorm  =       0.00046836

  Components of energy : 

--------------------------------------------------------------------------------
  Interatomic potentials     =          12.37910537 eV    
  Monopole - monopole (real) =         -68.43757854 eV    
  Monopole - monopole (recip)=        -103.14295617 eV    
  Monopole - monopole (total)=        -171.58053471 eV    
--------------------------------------------------------------------------------
  Total lattice energy       =        -159.20142934 eV    
--------------------------------------------------------------------------------
  Total lattice energy       =          -15360.5043 kJ/(mole unit cells)
--------------------------------------------------------------------------------

  Final fractional coordinates of atoms :

--------------------------------------------------------------------------------
   No.  Atomic        x           y          z          Radius
        Label       (Frac)      (Frac)     (Frac)       (Angs) 
--------------------------------------------------------------------------------
     1  Ti    c     0.305030    0.294543    0.370101    0.000000
     2  Ti    c     0.805011    0.794539    0.870107    0.000000
     3  Ti    c     0.805009    0.794542    0.370103    0.000000
     4  Ti    c     0.305028    0.294541    0.870104    0.000000
     5  O     c     0.956651    0.946181    0.021748    0.000000
     6  O     c     0.259934    0.642904    0.218453    0.000000
     7  O     c     0.759949    0.142893    0.718446    0.000000
     8  O     c     0.456644    0.446183    0.521755    0.000000
     9  O     c     0.350094    0.946187    0.521742    0.000000
    10  O     c     0.653387    0.642902    0.718450    0.000000
    11  O     c     0.153375    0.142907    0.218461    0.000000
    12  O     c     0.850099    0.446190    0.021738    0.000000
--------------------------------------------------------------------------------

  Final Cartesian lattice vectors (Angstroms) :

        3.474505    0.028285    2.848227
       -0.692486    5.304019    0.792015
        0.106322    1.076082    6.946680


  Final cell parameters and derivatives :

--------------------------------------------------------------------------------
       a            4.492814 Angstrom     dE/de1(xx)    -0.001937 eV/strain
       b            5.407351 Angstrom     dE/de2(yy)     0.000717 eV/strain
       c            7.030336 Angstrom     dE/de3(zz)     0.000207 eV/strain
       alpha       72.966654 Degrees      dE/de4(yz)    -0.000033 eV/strain
       beta        50.277694 Degrees      dE/de5(xz)    -0.001792 eV/strain
       gamma       90.000433 Degrees      dE/de6(xy)    -0.000821 eV/strain
--------------------------------------------------------------------------------

  Primitive cell volume =           121.467829 Angs**3

  Density of cell =      4.368102 g/cm**3

  Non-primitive cell volume =           121.467829 Angs**3


  Final internal derivatives :

--------------------------------------------------------------------------------
   No.  Atomic          a             b             c           Radius
        Label          (eV)          (eV)          (eV)        (eV/Angs)
--------------------------------------------------------------------------------
      1 Ti    c       0.000000      0.000000      0.000000      0.000000
      2 Ti    c       0.001195     -0.000279      0.007774      0.000000
      3 Ti    c      -0.002170     -0.002153     -0.003728      0.000000
      4 Ti    c       0.002762      0.000516      0.003984      0.000000
      5 O     c      -0.000861     -0.003696     -0.002553      0.000000
      6 O     c      -0.005267      0.004279     -0.004373      0.000000
      7 O     c      -0.000737     -0.002906     -0.006331      0.000000
      8 O     c       0.001037      0.000366      0.003313      0.000000
      9 O     c       0.000248     -0.000075     -0.001293      0.000000
     10 O     c      -0.001636      0.000746     -0.003658      0.000000
     11 O     c       0.000641      0.003777      0.005252      0.000000
     12 O     c       0.000443      0.000243     -0.002878      0.000000
--------------------------------------------------------------------------------
  Maximum abs         0.005267      0.004279      0.007774      0.000000
--------------------------------------------------------------------------------


  Time to end of optimisation =       3.1413 seconds


  Peak dynamic memory used =       1.84 MB 


  Timing analysis for GULP :

--------------------------------------------------------------------------------
  Task / Subroutine                                          Time (Seconds)
--------------------------------------------------------------------------------
  Calculation of reciprocal space energy and derivatives          0.1002
  Calculation of real space energy and derivatives                3.0155
  Calculation and manipulation of Hessian matrix                  0.0011
  Calculation of matrix inversion                                 0.0019
  Global summation overhead                                       0.0004
--------------------------------------------------------------------------------
  Total CPU time                                                  3.1413
--------------------------------------------------------------------------------


  Job Finished at 10:53.45 29th May        2024                               

