********************************************************************************
*                       GENERAL UTILITY LATTICE PROGRAM                        *
*                                 Julian Gale                                  *
*                       Curtin Institute for Computation                       *
*                    School of Molecular and Life Sciences                     *
*                    Curtin University, Western Australia                      *
********************************************************************************
* Version = 6.0.0 * Last modified =  12th July 2021                            *
********************************************************************************
*  optimise     - perform optimisation run                                     *
*  conp         - constant pressure calculation                                *
*  conjugate    - use conjugate gradients minimiser                            *
********************************************************************************

  Job Started  at 10:53.26 29th May        2024                               

  Number of CPUs =     1


  Total number of configurations input =      1

********************************************************************************
*  Input for Configuration =   1                                               *
********************************************************************************

  Formula = Ti4O8                                                       

  Number of irreducible atoms/shells =      12


  Total number atoms/shells =      12

  Dimensionality = 3               :  Bulk   



  Cartesian lattice vectors (Angstroms) :

        3.212233    0.000000    3.741797
        0.000000    6.363490    0.000000
        0.000000    0.000000    8.297735

  Cell parameters (Angstroms/Degrees):

  a =       4.9315    alpha =  90.0000
  b =       6.3635    beta  =  40.6452
  c =       8.2977    gamma =  90.0000

  Initial cell volume =         169.614097 Angs**3

  Temperature of configuration =   0.00     K 

  Pressure of configuration =         0.000 GPa 

  Fractional coordinates of asymmetric unit :

--------------------------------------------------------------------------------
   No.  Atomic       x           y          z         Charge      Occupancy
        Label      (Frac)      (Frac)     (Frac)        (e)         (Frac)  
--------------------------------------------------------------------------------
      1 Ti    c    0.083424    0.347694    0.337857     2.19600    1.000000    
      2 Ti    c    0.083424 *  0.652306 *  0.837857 *   2.19600    1.000000    
      3 Ti    c    0.805159 *  0.742139 *  0.780001 *   2.19600    1.000000    
      4 Ti    c    0.805159 *  0.257861 *  0.280001 *   2.19600    1.000000    
      5 O     c    0.031918 *  0.069702 *  0.494228 *  -1.09800    1.000000    
      6 O     c    0.031918 *  0.930298 *  0.994228 *  -1.09800    1.000000    
      7 O     c    0.272066 *  0.596433 *  0.148902 *  -1.09800    1.000000    
      8 O     c    0.272066 *  0.403567 *  0.648902 *  -1.09800    1.000000    
      9 O     c    0.067438 *  0.265451 *  0.986614 *  -1.09800    1.000000    
     10 O     c    0.067438 *  0.734549 *  0.486614 *  -1.09800    1.000000    
     11 O     c    0.272026 *  0.407928 *  0.889801 *  -1.09800    1.000000    
     12 O     c    0.272026 *  0.592072 *  0.389801 *  -1.09800    1.000000    
--------------------------------------------------------------------------------



********************************************************************************
*  General input information                                                   *
********************************************************************************

  Species output for all configurations : 

--------------------------------------------------------------------------------
  Species    Type    Atomic    Atomic    Charge       Radii (Angs)     Library
                     Number     Mass       (e)     Cova   Ionic  VDW   Symbol
--------------------------------------------------------------------------------
    Ti       Core       22      47.88   2.196000   1.470  0.000  2.190          
    O        Core        8      16.00  -1.098000   0.730  0.000  1.360          
--------------------------------------------------------------------------------


  Lattice summation method               =    Ewald          (3-D)
                                         =    Parry          (2-D)
                                         =    Saunders et al (1-D)
  Accuracy factor for lattice sums       =   12.000


  Analytic derivatives to be used

  Time limit = Infinity

  Maximum range for interatomic potentials =    100000.000000 Angstroms

  General interatomic potentials :

--------------------------------------------------------------------------------
Atom  Types   Potential      Parameter       Value         Units   Cutoffs(Ang)
  1     2                                                            Min /  Max 
--------------------------------------------------------------------------------
Ti   c Ti   c Buckingham    Buckingham A     31120.100    eV        0.000 15.000
                            Buckingham rho  0.15400000    Ang       
                            Buckingham C     5.2500000    eV*Ang^6  
--------------------------------------------------------------------------------
O    c O    c Buckingham    Buckingham A     11782.700    eV        0.000 15.000
                            Buckingham rho  0.23400000    Ang       
                            Buckingham C     30.220000    eV*Ang^6  
--------------------------------------------------------------------------------
O    c Ti   c Buckingham    Buckingham A     16957.500    eV        0.000 15.000
                            Buckingham rho  0.19400000    Ang       
                            Buckingham C     12.590000    eV*Ang^6  
--------------------------------------------------------------------------------
Ti   c Ti   c Lennard       Lennard-Jones A  1.0000000    eV*Ang^m  0.000 15.000
                            Lennard-Jones B  0.0000000    eV*Ang^n  
                            Exponent m        12          None
                            Exponent n         6          None
--------------------------------------------------------------------------------
O    c O    c Lennard       Lennard-Jones A  1.0000000    eV*Ang^m  0.000 15.000
                            Lennard-Jones B  0.0000000    eV*Ang^n  
                            Exponent m        12          None
                            Exponent n         6          None
--------------------------------------------------------------------------------
O    c Ti   c Lennard       Lennard-Jones A  1.0000000    eV*Ang^m  0.000 15.000
                            Lennard-Jones B  0.0000000    eV*Ang^n  
                            Exponent m        12          None
                            Exponent n         6          None
--------------------------------------------------------------------------------

********************************************************************************
*  Output for configuration   1                                                *
********************************************************************************


  Components of energy : 

--------------------------------------------------------------------------------
  Interatomic potentials     =         179.03236715 eV    
  Monopole - monopole (real) =         -19.93329128 eV    
  Monopole - monopole (recip)=         -89.37718473 eV    
  Monopole - monopole (total)=        -109.31047600 eV    
--------------------------------------------------------------------------------
  Total lattice energy       =          69.72189114 eV    
--------------------------------------------------------------------------------
  Total lattice energy       =            6727.0967 kJ/(mole unit cells)
--------------------------------------------------------------------------------


  Number of variables =       39

  Maximum number of calculations  =          1000
  Maximum Hessian update interval =            10
  Maximum step size               =   1.000000000
  Maximum parameter tolerance     =   0.000010000
  Maximum function  tolerance     =   0.000010000
  Maximum gradient  tolerance     =   0.001000000
  Maximum gradient  component     =   0.010000000

  Symmetry not applied to optimisation

  Cell parameters to be optimised using strains

  Conjugate gradient optimiser to be used

  Lower half triangular hessian to be used

  Minimiser to switch to BFGS with exact hessian
  When gradient norm is less than     0.500000

  Start of bulk optimisation :

  Cycle:      0 Energy:        69.721891  Gnorm:     99.282791  CPU:    0.022
  Cycle:      1 Energy:       -95.257993  Gnorm:     10.280247  CPU:    0.056
  Cycle:      2 Energy:      -111.121801  Gnorm:      6.265032  CPU:    0.079
  Cycle:      3 Energy:      -117.977106  Gnorm:      3.911701  CPU:    0.108
  Cycle:      4 Energy:      -125.937996  Gnorm:      3.527944  CPU:    0.135
  Cycle:      5 Energy:      -128.902687  Gnorm:      2.731763  CPU:    0.157
  Cycle:      6 Energy:      -131.416130  Gnorm:      2.404352  CPU:    0.184
  Cycle:      7 Energy:      -133.902090  Gnorm:      2.694827  CPU:    0.210
  Cycle:      8 Energy:      -136.313223  Gnorm:      2.923835  CPU:    0.232
  Cycle:      9 Energy:      -137.631399  Gnorm:      2.061782  CPU:    0.254
  Cycle:     10 Energy:      -138.383756  Gnorm:      1.335218  CPU:    0.281
  Cycle:     11 Energy:      -139.156098  Gnorm:      1.368242  CPU:    0.308
  Cycle:     12 Energy:      -139.596779  Gnorm:      1.263539  CPU:    0.330
  Cycle:     13 Energy:      -140.956556  Gnorm:      1.553380  CPU:    0.358
  Cycle:     14 Energy:      -142.379194  Gnorm:      2.255450  CPU:    0.381
  Cycle:     15 Energy:      -143.438723  Gnorm:      1.852678  CPU:    0.406
  Cycle:     16 Energy:      -144.795027  Gnorm:      1.566782  CPU:    0.437
  Cycle:     17 Energy:      -145.540019  Gnorm:      1.414249  CPU:    0.462
  Cycle:     18 Energy:      -146.512268  Gnorm:      1.492922  CPU:    0.493
  Cycle:     19 Energy:      -147.286255  Gnorm:      1.092765  CPU:    0.519
  Cycle:     20 Energy:      -147.614453  Gnorm:      1.048365  CPU:    0.545
  Cycle:     21 Energy:      -147.957009  Gnorm:      1.005781  CPU:    0.577
  Cycle:     22 Energy:      -148.293894  Gnorm:      0.657197  CPU:    0.609
  Cycle:     23 Energy:      -148.498241  Gnorm:      0.963298  CPU:    0.641
  Cycle:     24 Energy:      -148.725639  Gnorm:      0.666440  CPU:    0.667
  Cycle:     25 Energy:      -148.955944  Gnorm:      0.609290  CPU:    0.699
  Cycle:     26 Energy:      -149.193325  Gnorm:      0.796976  CPU:    0.731
  Cycle:     27 Energy:      -149.393425  Gnorm:      0.720241  CPU:    0.757
  Cycle:     28 Energy:      -149.573031  Gnorm:      0.804407  CPU:    0.788
  Cycle:     29 Energy:      -149.813732  Gnorm:      0.506215  CPU:    0.831
  Cycle:     30 Energy:      -149.899164  Gnorm:      0.440792  CPU:    0.874
  ** Hessian calculated **
  Cycle:     31 Energy:      -150.182111  Gnorm:      0.426491  CPU:    0.958
  ** Hessian calculated **
  Cycle:     32 Energy:      -150.264220  Gnorm:      0.330082  CPU:    1.017
  Cycle:     33 Energy:      -150.391196  Gnorm:      0.396990  CPU:    1.061
  Cycle:     34 Energy:      -150.489611  Gnorm:      0.280381  CPU:    1.105
  Cycle:     35 Energy:      -150.601936  Gnorm:      0.280471  CPU:    1.150
  Cycle:     36 Energy:      -150.647404  Gnorm:      0.189038  CPU:    1.186
  Cycle:     37 Energy:      -150.679244  Gnorm:      0.253665  CPU:    1.231
  Cycle:     38 Energy:      -150.745531  Gnorm:      0.222183  CPU:    1.277
  Cycle:     39 Energy:      -150.823102  Gnorm:      0.256762  CPU:    1.323
  Cycle:     40 Energy:      -150.920767  Gnorm:      0.312462  CPU:    1.369
  Cycle:     41 Energy:      -151.028450  Gnorm:      0.310438  CPU:    1.415
  ** Hessian calculated **
  Cycle:     42 Energy:      -151.111039  Gnorm:      0.168308  CPU:    1.498
  Cycle:     43 Energy:      -151.126704  Gnorm:      0.090438  CPU:    1.535
  ** Hessian calculated **
  Cycle:     44 Energy:      -151.129919  Gnorm:      0.049398  CPU:    1.611
  Cycle:     45 Energy:      -151.131921  Gnorm:      0.041307  CPU:    1.656
  Cycle:     46 Energy:      -151.133180  Gnorm:      0.041712  CPU:    1.693
  Cycle:     47 Energy:      -151.135512  Gnorm:      0.039807  CPU:    1.739
  Cycle:     48 Energy:      -151.137316  Gnorm:      0.046194  CPU:    1.775
  Cycle:     49 Energy:      -151.138897  Gnorm:      0.039717  CPU:    1.821
  Cycle:     50 Energy:      -151.142809  Gnorm:      0.073792  CPU:    1.866
  Cycle:     51 Energy:      -151.156085  Gnorm:      0.127306  CPU:    1.921
  Cycle:     52 Energy:      -151.253821  Gnorm:      0.331349  CPU:    2.001
  ** Hessian calculated **
  Cycle:     53 Energy:      -151.314972  Gnorm:      0.267879  CPU:    2.075
  Cycle:     54 Energy:      -151.376256  Gnorm:      0.289097  CPU:    2.120
  Cycle:     55 Energy:      -151.465776  Gnorm:      0.329196  CPU:    2.165
  Cycle:     56 Energy:      -151.597400  Gnorm:      0.390510  CPU:    2.211
  Cycle:     57 Energy:      -151.827936  Gnorm:      0.623068  CPU:    2.266
  Cycle:     58 Energy:      -152.048773  Gnorm:      0.779263  CPU:    2.316
  Cycle:     59 Energy:      -152.361567  Gnorm:      0.443216  CPU:    2.366
  Cycle:     60 Energy:      -152.604462  Gnorm:      0.557190  CPU:    2.417
  Cycle:     61 Energy:      -152.874138  Gnorm:      0.509685  CPU:    2.462
  Cycle:     62 Energy:      -153.048467  Gnorm:      0.400265  CPU:    2.500
  ** Hessian calculated **
  Cycle:     63 Energy:      -153.119513  Gnorm:      0.244813  CPU:    2.575
  Cycle:     64 Energy:      -153.177539  Gnorm:      0.318784  CPU:    2.620
  Cycle:     65 Energy:      -153.255792  Gnorm:      0.255143  CPU:    2.665
  Cycle:     66 Energy:      -153.328742  Gnorm:      0.254183  CPU:    2.709
  Cycle:     67 Energy:      -153.413677  Gnorm:      0.294149  CPU:    2.754
  Cycle:     68 Energy:      -153.464156  Gnorm:      0.286997  CPU:    2.790
  Cycle:     69 Energy:      -153.583624  Gnorm:      0.415651  CPU:    2.835
  Cycle:     70 Energy:      -153.655575  Gnorm:      0.277871  CPU:    2.872
  Cycle:     71 Energy:      -153.730147  Gnorm:      0.231847  CPU:    2.910
  Cycle:     72 Energy:      -153.795105  Gnorm:      0.253981  CPU:    2.956
  ** Hessian calculated **
  Cycle:     73 Energy:      -154.081275  Gnorm:      0.227590  CPU:    3.049
  Cycle:     74 Energy:      -154.145724  Gnorm:      0.112334  CPU:    3.089
  Cycle:     75 Energy:      -154.185354  Gnorm:      0.117445  CPU:    3.128
  Cycle:     76 Energy:      -154.212146  Gnorm:      0.094920  CPU:    3.186
  Cycle:     77 Energy:      -154.226544  Gnorm:      0.073633  CPU:    3.226
  Cycle:     78 Energy:      -154.234011  Gnorm:      0.064750  CPU:    3.266
  Cycle:     79 Energy:      -154.239610  Gnorm:      0.057754  CPU:    3.315
  Cycle:     80 Energy:      -154.242664  Gnorm:      0.040663  CPU:    3.355
  ** Hessian calculated **
  Cycle:     81 Energy:      -154.243483  Gnorm:      0.026079  CPU:    3.435
  Cycle:     82 Energy:      -154.243811  Gnorm:      0.015138  CPU:    3.475
  Cycle:     83 Energy:      -154.244026  Gnorm:      0.017724  CPU:    3.524
  Cycle:     84 Energy:      -154.244255  Gnorm:      0.015848  CPU:    3.573
  Cycle:     85 Energy:      -154.244449  Gnorm:      0.015388  CPU:    3.613
  Cycle:     86 Energy:      -154.244606  Gnorm:      0.024996  CPU:    3.653
  Cycle:     87 Energy:      -154.245119  Gnorm:      0.024109  CPU:    3.703
  Cycle:     88 Energy:      -154.246044  Gnorm:      0.036373  CPU:    3.753
  Cycle:     89 Energy:      -154.247857  Gnorm:      0.041451  CPU:    3.811
  Cycle:     90 Energy:      -154.251827  Gnorm:      0.053691  CPU:    3.879
  ** Hessian calculated **
  Cycle:     91 Energy:      -154.254872  Gnorm:      0.066982  CPU:    3.969
  Cycle:     92 Energy:      -154.258129  Gnorm:      0.061355  CPU:    4.019
  Cycle:     93 Energy:      -154.260835  Gnorm:      0.058955  CPU:    4.068
  Cycle:     94 Energy:      -154.262986  Gnorm:      0.038241  CPU:    4.108
  Cycle:     95 Energy:      -154.264650  Gnorm:      0.053545  CPU:    4.157
  Cycle:     96 Energy:      -154.267419  Gnorm:      0.058956  CPU:    4.206
  Cycle:     97 Energy:      -154.269974  Gnorm:      0.058912  CPU:    4.255
  Cycle:     98 Energy:      -154.275663  Gnorm:      0.086077  CPU:    4.306
  Cycle:     99 Energy:      -154.287990  Gnorm:      0.128442  CPU:    4.355
  Cycle:    100 Energy:      -154.319903  Gnorm:      0.201681  CPU:    4.414
  ** Hessian calculated **
  Cycle:    101 Energy:      -154.347617  Gnorm:      0.151345  CPU:    4.498
  Cycle:    102 Energy:      -154.368981  Gnorm:      0.160946  CPU:    4.547
  Cycle:    103 Energy:      -154.387758  Gnorm:      0.134343  CPU:    4.597
  Cycle:    104 Energy:      -154.399883  Gnorm:      0.126731  CPU:    4.637
  Cycle:    105 Energy:      -154.409294  Gnorm:      0.105474  CPU:    4.677
  Cycle:    106 Energy:      -154.424400  Gnorm:      0.126638  CPU:    4.727
  Cycle:    107 Energy:      -154.433298  Gnorm:      0.078548  CPU:    4.767
  Cycle:    108 Energy:      -154.443058  Gnorm:      0.095693  CPU:    4.817
  Cycle:    109 Energy:      -154.456190  Gnorm:      0.104282  CPU:    4.867
  Cycle:    110 Energy:      -154.467829  Gnorm:      0.101442  CPU:    4.906
  ** Hessian calculated **
  Cycle:    111 Energy:      -154.538182  Gnorm:      0.173809  CPU:    5.025
  ** Hessian calculated **
  Cycle:    112 Energy:      -154.554201  Gnorm:      0.127760  CPU:    5.107
  Cycle:    113 Energy:      -154.567023  Gnorm:      0.108275  CPU:    5.157
  Cycle:    114 Energy:      -154.575326  Gnorm:      0.098876  CPU:    5.197
  Cycle:    115 Energy:      -154.589701  Gnorm:      0.131657  CPU:    5.246
  Cycle:    116 Energy:      -154.640072  Gnorm:      0.328652  CPU:    5.305
  Cycle:    117 Energy:      -154.772995  Gnorm:      0.799750  CPU:    5.366
  Cycle:    118 Energy:      -154.802596  Gnorm:      0.915835  CPU:    5.440
  Cycle:    119 Energy:      -155.086011  Gnorm:      0.633038  CPU:    5.517
  Cycle:    120 Energy:      -155.289342  Gnorm:      0.501567  CPU:    5.579
  Cycle:    121 Energy:      -155.385592  Gnorm:      0.289908  CPU:    5.641
  ** Hessian calculated **
  Cycle:    122 Energy:      -155.444621  Gnorm:      0.315110  CPU:    5.760
  Cycle:    123 Energy:      -155.512812  Gnorm:      0.322566  CPU:    5.836
  Cycle:    124 Energy:      -155.618093  Gnorm:      0.329099  CPU:    5.912
  Cycle:    125 Energy:      -155.713682  Gnorm:      0.288643  CPU:    5.988
  Cycle:    126 Energy:      -155.750514  Gnorm:      0.197302  CPU:    6.050
  Cycle:    127 Energy:      -155.778856  Gnorm:      0.202743  CPU:    6.127
  Cycle:    128 Energy:      -155.808128  Gnorm:      0.211269  CPU:    6.202
  Cycle:    129 Energy:      -155.825700  Gnorm:      0.174088  CPU:    6.263
  Cycle:    130 Energy:      -155.846998  Gnorm:      0.134085  CPU:    6.337
  Cycle:    131 Energy:      -155.863169  Gnorm:      0.127954  CPU:    6.398
  ** Hessian calculated **
  Cycle:    132 Energy:      -155.871572  Gnorm:      0.128363  CPU:    6.507
  Cycle:    133 Energy:      -155.882521  Gnorm:      0.108266  CPU:    6.582
  Cycle:    134 Energy:      -155.893517  Gnorm:      0.131607  CPU:    6.657
  Cycle:    135 Energy:      -155.908001  Gnorm:      0.131460  CPU:    6.733
  Cycle:    136 Energy:      -155.926159  Gnorm:      0.167035  CPU:    6.809
  Cycle:    137 Energy:      -155.942474  Gnorm:      0.148900  CPU:    6.884
  Cycle:    138 Energy:      -155.981657  Gnorm:      0.191743  CPU:    6.960
  Cycle:    139 Energy:      -156.004762  Gnorm:      0.195294  CPU:    7.021
  Cycle:    140 Energy:      -156.024416  Gnorm:      0.110747  CPU:    7.083
  Cycle:    141 Energy:      -156.049000  Gnorm:      0.163434  CPU:    7.159
  ** Hessian calculated **
  Cycle:    142 Energy:      -156.120707  Gnorm:      0.131463  CPU:    7.312
  Cycle:    143 Energy:      -156.157303  Gnorm:      0.090825  CPU:    7.387
  Cycle:    144 Energy:      -156.160698  Gnorm:      0.019953  CPU:    7.461
  Cycle:    145 Energy:      -156.161266  Gnorm:      0.009075  CPU:    7.521
  Cycle:    146 Energy:      -156.161404  Gnorm:      0.003576  CPU:    7.581
  Cycle:    147 Energy:      -156.161431  Gnorm:      0.002232  CPU:    7.641
  Cycle:    148 Energy:      -156.161436  Gnorm:      0.000616  CPU:    7.701


  **** Optimisation achieved ****


  Final energy =    -156.16143653 eV      
  Final Gnorm  =       0.00033419

  Components of energy : 

--------------------------------------------------------------------------------
  Interatomic potentials     =          12.21274547 eV    
  Monopole - monopole (real) =         -65.90836123 eV    
  Monopole - monopole (recip)=        -102.46582076 eV    
  Monopole - monopole (total)=        -168.37418199 eV    
--------------------------------------------------------------------------------
  Total lattice energy       =        -156.16143653 eV    
--------------------------------------------------------------------------------
  Total lattice energy       =          -15067.1915 kJ/(mole unit cells)
--------------------------------------------------------------------------------

  Final fractional coordinates of atoms :

--------------------------------------------------------------------------------
   No.  Atomic        x           y          z          Radius
        Label       (Frac)      (Frac)     (Frac)       (Angs) 
--------------------------------------------------------------------------------
     1  Ti    c     0.083424    0.347694    0.337857    0.000000
     2  Ti    c     0.251422    0.333402    0.922551    0.000000
     3  Ti    c     0.896710    0.723895    0.867965    0.000000
     4  Ti    c     0.510372    0.984283    0.365832    0.000000
     5  O     c     0.888215    0.121797    0.551459    0.000000
     6  O     c     0.200350    0.969463    0.142551    0.000000
     7  O     c     0.573282    0.596205    0.221326    0.000000
     8  O     c     0.460510    0.587600    0.739942    0.000000
     9  O     c     0.799304    0.074768    0.080365    0.000000
    10  O     c     0.199552    0.936922    0.652533    0.000000
    11  O     c     0.433160    0.449900    0.029975    0.000000
    12  O     c     0.447371    0.386058    0.500727    0.000000
--------------------------------------------------------------------------------

  Final Cartesian lattice vectors (Angstroms) :

        2.356570   -0.333105    4.444289
        0.813227    4.909354   -0.874015
       -0.530323   -1.143379    9.982467


  Final cell parameters and derivatives :

--------------------------------------------------------------------------------
       a            5.041437 Angstrom     dE/de1(xx)    -0.000276 eV/strain
       b            5.052425 Angstrom     dE/de2(yy)     0.000659 eV/strain
       c           10.061720 Angstrom     dE/de3(zz)     0.000052 eV/strain
       alpha      106.889618 Degrees      dE/de4(yz)    -0.000500 eV/strain
       beta        30.965267 Degrees      dE/de5(xz)    -0.000657 eV/strain
       gamma       98.132522 Degrees      dE/de6(xy)     0.001134 eV/strain
--------------------------------------------------------------------------------

  Primitive cell volume =           123.122764 Angs**3

  Density of cell =      4.309389 g/cm**3

  Non-primitive cell volume =           123.122764 Angs**3


  Final internal derivatives :

--------------------------------------------------------------------------------
   No.  Atomic          a             b             c           Radius
        Label          (eV)          (eV)          (eV)        (eV/Angs)
--------------------------------------------------------------------------------
      1 Ti    c       0.000000      0.000000      0.000000      0.000000
      2 Ti    c       0.001293      0.001054      0.003812      0.000000
      3 Ti    c       0.001475     -0.000870      0.000512      0.000000
      4 Ti    c      -0.000548      0.000899     -0.002496      0.000000
      5 O     c      -0.001747     -0.000893     -0.004385      0.000000
      6 O     c       0.001284     -0.000430      0.002714      0.000000
      7 O     c      -0.001446     -0.000957     -0.003120      0.000000
      8 O     c      -0.000949      0.000351     -0.001868      0.000000
      9 O     c       0.000014     -0.000049     -0.000423      0.000000
     10 O     c       0.002196     -0.001573      0.006715      0.000000
     11 O     c      -0.002290      0.000744     -0.005130      0.000000
     12 O     c       0.000551      0.001223      0.001874      0.000000
--------------------------------------------------------------------------------
  Maximum abs         0.002290      0.001573      0.006715      0.000000
--------------------------------------------------------------------------------


  Time to end of optimisation =       7.7607 seconds


  Peak dynamic memory used =       1.84 MB 


  Timing analysis for GULP :

--------------------------------------------------------------------------------
  Task / Subroutine                                          Time (Seconds)
--------------------------------------------------------------------------------
  Calculation of reciprocal space energy and derivatives          0.2060
  Calculation of real space energy and derivatives                7.5124
  Calculation and manipulation of Hessian matrix                  0.0016
  Calculation of matrix inversion                                 0.0028
  Global summation overhead                                       0.0010
--------------------------------------------------------------------------------
  Total CPU time                                                  7.7607
--------------------------------------------------------------------------------


  Job Finished at 10:53.33 29th May        2024                               

