********************************************************************************
*                       GENERAL UTILITY LATTICE PROGRAM                        *
*                                 Julian Gale                                  *
*                       Curtin Institute for Computation                       *
*                    School of Molecular and Life Sciences                     *
*                    Curtin University, Western Australia                      *
********************************************************************************
* Version = 6.0.0 * Last modified =  12th July 2021                            *
********************************************************************************
*  optimise     - perform optimisation run                                     *
*  conp         - constant pressure calculation                                *
*  conjugate    - use conjugate gradients minimiser                            *
********************************************************************************

  Job Started  at 10:53.54 29th May        2024                               

  Number of CPUs =     1


  Total number of configurations input =      1

********************************************************************************
*  Input for Configuration =   1                                               *
********************************************************************************

  Formula = Ti4O8                                                       

  Number of irreducible atoms/shells =      12


  Total number atoms/shells =      12

  Dimensionality = 3               :  Bulk   



  Cartesian lattice vectors (Angstroms) :

        6.036227    0.000000    0.000000
        0.000000    5.172283    0.000000
        0.000000    0.000000    6.291844

  Cell parameters (Angstroms/Degrees):

  a =       6.0362    alpha =  90.0000
  b =       5.1723    beta  =  90.0000
  c =       6.2918    gamma =  90.0000

  Initial cell volume =         196.438116 Angs**3

  Temperature of configuration =   0.00     K 

  Pressure of configuration =         0.000 GPa 

  Fractional coordinates of asymmetric unit :

--------------------------------------------------------------------------------
   No.  Atomic       x           y          z         Charge      Occupancy
        Label      (Frac)      (Frac)     (Frac)        (e)         (Frac)  
--------------------------------------------------------------------------------
      1 Ti    c    0.725107    0.000000    0.889267     2.19600    1.000000    
      2 Ti    c    0.274893 *  0.000000 *  0.889267 *   2.19600    1.000000    
      3 Ti    c    0.500000 *  0.500000 *  0.580580 *   2.19600    1.000000    
      4 Ti    c    0.000000 *  0.500000 *  0.401808 *   2.19600    1.000000    
      5 O     c    0.828067 *  0.360895 *  0.974900 *  -1.09800    1.000000    
      6 O     c    0.171933 *  0.639105 *  0.974900 *  -1.09800    1.000000    
      7 O     c    0.828067 *  0.639105 *  0.974900 *  -1.09800    1.000000    
      8 O     c    0.171933 *  0.360895 *  0.974900 *  -1.09800    1.000000    
      9 O     c    0.899140 *  0.000000 *  0.253656 *  -1.09800    1.000000    
     10 O     c    0.100860 *  0.000000 *  0.253656 *  -1.09800    1.000000    
     11 O     c    0.500000 *  0.000000 *  0.549147 *  -1.09800    1.000000    
     12 O     c    0.000000 *  0.500000 *  0.209931 *  -1.09800    1.000000    
--------------------------------------------------------------------------------



********************************************************************************
*  General input information                                                   *
********************************************************************************

  Species output for all configurations : 

--------------------------------------------------------------------------------
  Species    Type    Atomic    Atomic    Charge       Radii (Angs)     Library
                     Number     Mass       (e)     Cova   Ionic  VDW   Symbol
--------------------------------------------------------------------------------
    Ti       Core       22      47.88   2.196000   1.470  0.000  2.190          
    O        Core        8      16.00  -1.098000   0.730  0.000  1.360          
--------------------------------------------------------------------------------


  Lattice summation method               =    Ewald          (3-D)
                                         =    Parry          (2-D)
                                         =    Saunders et al (1-D)
  Accuracy factor for lattice sums       =   12.000


  Analytic derivatives to be used

  Time limit = Infinity

  Maximum range for interatomic potentials =    100000.000000 Angstroms

  General interatomic potentials :

--------------------------------------------------------------------------------
Atom  Types   Potential      Parameter       Value         Units   Cutoffs(Ang)
  1     2                                                            Min /  Max 
--------------------------------------------------------------------------------
Ti   c Ti   c Buckingham    Buckingham A     31120.100    eV        0.000 15.000
                            Buckingham rho  0.15400000    Ang       
                            Buckingham C     5.2500000    eV*Ang^6  
--------------------------------------------------------------------------------
O    c O    c Buckingham    Buckingham A     11782.700    eV        0.000 15.000
                            Buckingham rho  0.23400000    Ang       
                            Buckingham C     30.220000    eV*Ang^6  
--------------------------------------------------------------------------------
O    c Ti   c Buckingham    Buckingham A     16957.500    eV        0.000 15.000
                            Buckingham rho  0.19400000    Ang       
                            Buckingham C     12.590000    eV*Ang^6  
--------------------------------------------------------------------------------
Ti   c Ti   c Lennard       Lennard-Jones A  1.0000000    eV*Ang^m  0.000 15.000
                            Lennard-Jones B  0.0000000    eV*Ang^n  
                            Exponent m        12          None
                            Exponent n         6          None
--------------------------------------------------------------------------------
O    c O    c Lennard       Lennard-Jones A  1.0000000    eV*Ang^m  0.000 15.000
                            Lennard-Jones B  0.0000000    eV*Ang^n  
                            Exponent m        12          None
                            Exponent n         6          None
--------------------------------------------------------------------------------
O    c Ti   c Lennard       Lennard-Jones A  1.0000000    eV*Ang^m  0.000 15.000
                            Lennard-Jones B  0.0000000    eV*Ang^n  
                            Exponent m        12          None
                            Exponent n         6          None
--------------------------------------------------------------------------------

********************************************************************************
*  Output for configuration   1                                                *
********************************************************************************


  Components of energy : 

--------------------------------------------------------------------------------
  Interatomic potentials     =         141.55739802 eV    
  Monopole - monopole (real) =         -13.46898440 eV    
  Monopole - monopole (recip)=         -77.93006212 eV    
  Monopole - monopole (total)=         -91.39904653 eV    
--------------------------------------------------------------------------------
  Total lattice energy       =          50.15835149 eV    
--------------------------------------------------------------------------------
  Total lattice energy       =            4839.5142 kJ/(mole unit cells)
--------------------------------------------------------------------------------


  Number of variables =       39

  Maximum number of calculations  =          1000
  Maximum Hessian update interval =            10
  Maximum step size               =   1.000000000
  Maximum parameter tolerance     =   0.000010000
  Maximum function  tolerance     =   0.000010000
  Maximum gradient  tolerance     =   0.001000000
  Maximum gradient  component     =   0.010000000

  Symmetry not applied to optimisation

  Cell parameters to be optimised using strains

  Conjugate gradient optimiser to be used

  Lower half triangular hessian to be used

  Minimiser to switch to BFGS with exact hessian
  When gradient norm is less than     0.500000

  Start of bulk optimisation :

  Cycle:      0 Energy:        50.158351  Gnorm:     66.945285  CPU:    0.018
  Cycle:      1 Energy:       -84.575157  Gnorm:      8.313416  CPU:    0.049
  Cycle:      2 Energy:      -106.543644  Gnorm:      4.924627  CPU:    0.069
  Cycle:      3 Energy:      -115.663080  Gnorm:      5.288760  CPU:    0.086
  Cycle:      4 Energy:      -120.433783  Gnorm:      3.197944  CPU:    0.099
  Cycle:      5 Energy:      -132.588151  Gnorm:      2.543603  CPU:    0.119
  Cycle:      6 Energy:      -137.994316  Gnorm:      2.372456  CPU:    0.133
  Cycle:      7 Energy:      -140.861095  Gnorm:      1.282114  CPU:    0.146
  Cycle:      8 Energy:      -142.466924  Gnorm:      1.465035  CPU:    0.164
  Cycle:      9 Energy:      -143.156874  Gnorm:      1.098144  CPU:    0.178
  Cycle:     10 Energy:      -143.751558  Gnorm:      1.127383  CPU:    0.196
  Cycle:     11 Energy:      -144.341270  Gnorm:      0.723513  CPU:    0.215
  Cycle:     12 Energy:      -145.346653  Gnorm:      0.925080  CPU:    0.238
  Cycle:     13 Energy:      -145.760350  Gnorm:      1.002271  CPU:    0.259
  Cycle:     14 Energy:      -146.899683  Gnorm:      1.281461  CPU:    0.280
  Cycle:     15 Energy:      -148.115826  Gnorm:      1.233032  CPU:    0.307
  Cycle:     16 Energy:      -149.262759  Gnorm:      1.182041  CPU:    0.330
  Cycle:     17 Energy:      -149.990032  Gnorm:      0.807878  CPU:    0.349
  Cycle:     18 Energy:      -150.349324  Gnorm:      0.487202  CPU:    0.371
  ** Hessian calculated **
  Cycle:     19 Energy:      -150.917062  Gnorm:      0.114172  CPU:    0.429
  Cycle:     20 Energy:      -150.969240  Gnorm:      0.057481  CPU:    0.447
  Cycle:     21 Energy:      -150.971310  Gnorm:      0.012404  CPU:    0.469
  Cycle:     22 Energy:      -150.971365  Gnorm:      0.010375  CPU:    0.495
  ** Hessian calculated **
  Cycle:     23 Energy:      -150.971609  Gnorm:      0.012529  CPU:    0.544
  Cycle:     24 Energy:      -150.971936  Gnorm:      0.018742  CPU:    0.566
  Cycle:     25 Energy:      -150.972243  Gnorm:      0.020681  CPU:    0.584
  Cycle:     26 Energy:      -150.974502  Gnorm:      0.041042  CPU:    0.622
  ** Hessian calculated **
  Cycle:     27 Energy:      -150.976336  Gnorm:      0.050885  CPU:    0.677
  Cycle:     28 Energy:      -150.987326  Gnorm:      0.091404  CPU:    0.714
  Cycle:     29 Energy:      -150.987468  Gnorm:      0.117496  CPU:    0.733
  ** Hessian calculated **
  Cycle:     30 Energy:      -150.997345  Gnorm:      0.062635  CPU:    0.783
  Cycle:     31 Energy:      -151.069386  Gnorm:      0.192767  CPU:    0.821
  Cycle:     32 Energy:      -151.123778  Gnorm:      0.434187  CPU:    0.847
  ** Hessian calculated **
  Cycle:     33 Energy:      -151.314650  Gnorm:      0.268668  CPU:    0.908
  Cycle:     34 Energy:      -151.479620  Gnorm:      0.418266  CPU:    0.935
  Cycle:     35 Energy:      -151.971879  Gnorm:      0.728230  CPU:    0.967
  Cycle:     36 Energy:      -152.469908  Gnorm:      0.512618  CPU:    0.991
  Cycle:     37 Energy:      -152.809228  Gnorm:      0.347766  CPU:    1.014
  Cycle:     38 Energy:      -152.949431  Gnorm:      0.333811  CPU:    1.038
  Cycle:     39 Energy:      -153.039299  Gnorm:      0.197111  CPU:    1.061
  Cycle:     40 Energy:      -153.081876  Gnorm:      0.186115  CPU:    1.090
  Cycle:     41 Energy:      -153.113330  Gnorm:      0.106758  CPU:    1.113
  Cycle:     42 Energy:      -153.138920  Gnorm:      0.145979  CPU:    1.142
  ** Hessian calculated **
  Cycle:     43 Energy:      -153.156019  Gnorm:      0.094017  CPU:    1.202
  Cycle:     44 Energy:      -153.182862  Gnorm:      0.162763  CPU:    1.231
  Cycle:     45 Energy:      -153.218723  Gnorm:      0.133617  CPU:    1.260
  Cycle:     46 Energy:      -153.246005  Gnorm:      0.140819  CPU:    1.284
  Cycle:     47 Energy:      -153.271064  Gnorm:      0.110179  CPU:    1.307
  Cycle:     48 Energy:      -153.290110  Gnorm:      0.073589  CPU:    1.331
  Cycle:     49 Energy:      -153.297488  Gnorm:      0.060361  CPU:    1.355
  Cycle:     50 Energy:      -153.301266  Gnorm:      0.044186  CPU:    1.379
  Cycle:     51 Energy:      -153.306408  Gnorm:      0.061604  CPU:    1.408
  Cycle:     52 Energy:      -153.317855  Gnorm:      0.089081  CPU:    1.438
  ** Hessian calculated **
  Cycle:     53 Energy:      -153.323787  Gnorm:      0.040512  CPU:    1.499
  Cycle:     54 Energy:      -153.327092  Gnorm:      0.050216  CPU:    1.528
  Cycle:     55 Energy:      -153.329333  Gnorm:      0.047401  CPU:    1.552
  Cycle:     56 Energy:      -153.332057  Gnorm:      0.046609  CPU:    1.581
  Cycle:     57 Energy:      -153.336471  Gnorm:      0.054806  CPU:    1.611
  Cycle:     58 Energy:      -153.346689  Gnorm:      0.074936  CPU:    1.646
  Cycle:     59 Energy:      -153.372197  Gnorm:      0.127990  CPU:    1.680
  Cycle:     60 Energy:      -153.397999  Gnorm:      0.176587  CPU:    1.709
  Cycle:     61 Energy:      -153.427522  Gnorm:      0.116758  CPU:    1.733
  Cycle:     62 Energy:      -153.441116  Gnorm:      0.076505  CPU:    1.757
  ** Hessian calculated **
  Cycle:     63 Energy:      -153.446776  Gnorm:      0.039568  CPU:    1.817
  Cycle:     64 Energy:      -153.451781  Gnorm:      0.058774  CPU:    1.846
  Cycle:     65 Energy:      -153.456712  Gnorm:      0.052494  CPU:    1.875
  Cycle:     66 Energy:      -153.462497  Gnorm:      0.053176  CPU:    1.904
  Cycle:     67 Energy:      -153.467593  Gnorm:      0.051171  CPU:    1.933
  Cycle:     68 Energy:      -153.477794  Gnorm:      0.076871  CPU:    1.962
  Cycle:     69 Energy:      -153.487158  Gnorm:      0.093712  CPU:    1.991
  Cycle:     70 Energy:      -153.498732  Gnorm:      0.067877  CPU:    2.020
  Cycle:     71 Energy:      -153.504867  Gnorm:      0.062530  CPU:    2.043
  Cycle:     72 Energy:      -153.509642  Gnorm:      0.063275  CPU:    2.066
  ** Hessian calculated **
  Cycle:     73 Energy:      -153.530445  Gnorm:      0.057580  CPU:    2.136
  Cycle:     74 Energy:      -153.536498  Gnorm:      0.020716  CPU:    2.165
  Cycle:     75 Energy:      -153.536960  Gnorm:      0.015280  CPU:    2.188
  Cycle:     76 Energy:      -153.537114  Gnorm:      0.003597  CPU:    2.217
  Cycle:     77 Energy:      -153.537141  Gnorm:      0.001806  CPU:    2.240
  Cycle:     78 Energy:      -153.537146  Gnorm:      0.000959  CPU:    2.268
  Cycle:     79 Energy:      -153.537146  Gnorm:      0.000684  CPU:    2.297
  Cycle:     80 Energy:      -153.537146  Gnorm:      0.000677  CPU:    2.330
  Cycle:     81 Energy:      -153.537146  Gnorm:      0.000673  CPU:    2.359
  Cycle:     82 Energy:      -153.537146  Gnorm:      0.000671  CPU:    2.387
  ** Hessian calculated **
  Cycle:     83 Energy:      -153.537146  Gnorm:      0.000657  CPU:    2.452
  Cycle:     84 Energy:      -153.537146  Gnorm:      0.000650  CPU:    2.480
  Cycle:     85 Energy:      -153.537146  Gnorm:      0.000647  CPU:    2.509
  Cycle:     86 Energy:      -153.537146  Gnorm:      0.000645  CPU:    2.537
  Cycle:     87 Energy:      -153.537146  Gnorm:      0.000644  CPU:    2.566
  Cycle:     88 Energy:      -153.537146  Gnorm:      0.000644  CPU:    2.594
  Cycle:     89 Energy:      -153.537146  Gnorm:      0.000643  CPU:    2.617
  Cycle:     90 Energy:      -153.537146  Gnorm:      0.000643  CPU:    2.641


  **** Too many failed attempts to optimise ****

  Final energy =    -153.53714650 eV      
  Final Gnorm  =       0.00064304

  Components of energy : 

--------------------------------------------------------------------------------
  Interatomic potentials     =          12.54707741 eV    
  Monopole - monopole (real) =         -67.18321632 eV    
  Monopole - monopole (recip)=         -98.90100759 eV    
  Monopole - monopole (total)=        -166.08422391 eV    
--------------------------------------------------------------------------------
  Total lattice energy       =        -153.53714650 eV    
--------------------------------------------------------------------------------
  Total lattice energy       =          -14813.9876 kJ/(mole unit cells)
--------------------------------------------------------------------------------

  Final fractional coordinates of atoms :

--------------------------------------------------------------------------------
   No.  Atomic        x           y          z          Radius
        Label       (Frac)      (Frac)     (Frac)       (Angs) 
--------------------------------------------------------------------------------
     1  Ti    c     0.725107    0.000000    0.889267    0.000000
     2  Ti    c     0.148158    0.000013    0.073249    0.000000
     3  Ti    c     0.459812    0.500001    0.881894    0.000000
     4  Ti    c     0.913106    0.500005    0.994937    0.000000
     5  O     c     0.629756    0.305110    0.091653    0.000000
     6  O     c     0.182058    0.685229    0.964922    0.000000
     7  O     c     0.629744    0.694890    0.091670    0.000000
     8  O     c     0.182087    0.314801    0.964948    0.000000
     9  O     c     0.824448    0.999984    0.304999    0.000000
    10  O     c     0.069044    0.000047    0.626158    0.000000
    11  O     c     0.452999    0.999999    0.838096    0.000000
    12  O     c     0.839914    0.500004    0.527539    0.000000
--------------------------------------------------------------------------------

  Final Cartesian lattice vectors (Angstroms) :

        6.168166    0.000116    1.270515
        0.000092    6.253222   -0.000024
        0.686598   -0.000007    3.694394


  Final cell parameters and derivatives :

--------------------------------------------------------------------------------
       a            6.297656 Angstrom     dE/de1(xx)    -0.007430 eV/strain
       b            6.253222 Angstrom     dE/de2(yy)    -0.002281 eV/strain
       c            3.757654 Angstrom     dE/de3(zz)     0.000062 eV/strain
       alpha       90.000161 Degrees      dE/de4(yz)     0.000103 eV/strain
       beta        67.832803 Degrees      dE/de5(xz)    -0.001168 eV/strain
       gamma       89.998162 Degrees      dE/de6(xy)     0.001049 eV/strain
--------------------------------------------------------------------------------

  Primitive cell volume =           137.041242 Angs**3

  Density of cell =      3.871709 g/cm**3

  Non-primitive cell volume =           137.041242 Angs**3


  Final internal derivatives :

--------------------------------------------------------------------------------
   No.  Atomic          a             b             c           Radius
        Label          (eV)          (eV)          (eV)        (eV/Angs)
--------------------------------------------------------------------------------
      1 Ti    c       0.000000      0.000000      0.000000      0.000000
      2 Ti    c       0.015510     -0.002141      0.003738      0.000000
      3 Ti    c       0.000428     -0.003777     -0.001471      0.000000
      4 Ti    c      -0.000336      0.000411     -0.000390      0.000000
      5 O     c       0.000823     -0.001247      0.001300      0.000000
      6 O     c      -0.001705      0.000095     -0.000929      0.000000
      7 O     c       0.003105      0.003222      0.002381      0.000000
      8 O     c       0.001129      0.000539     -0.001351      0.000000
      9 O     c       0.000336      0.001101     -0.001286      0.000000
     10 O     c      -0.004661      0.000589      0.000025      0.000000
     11 O     c      -0.014838      0.000803     -0.000814      0.000000
     12 O     c      -0.002548      0.000285     -0.000002      0.000000
--------------------------------------------------------------------------------
  Maximum abs         0.015510      0.003777      0.003738      0.000000
--------------------------------------------------------------------------------


  Time to end of optimisation =       2.6642 seconds


  Peak dynamic memory used =       1.84 MB 


  Timing analysis for GULP :

--------------------------------------------------------------------------------
  Task / Subroutine                                          Time (Seconds)
--------------------------------------------------------------------------------
  Calculation of reciprocal space energy and derivatives          0.1294
  Calculation of real space energy and derivatives                2.5056
  Calculation and manipulation of Hessian matrix                  0.0011
  Calculation of matrix inversion                                 0.0019
  Global summation overhead                                       0.0006
--------------------------------------------------------------------------------
  Total CPU time                                                  2.6642
--------------------------------------------------------------------------------


  Job Finished at 10:53.56 29th May        2024                               

