********************************************************************************
*                       GENERAL UTILITY LATTICE PROGRAM                        *
*                                 Julian Gale                                  *
*                       Curtin Institute for Computation                       *
*                    School of Molecular and Life Sciences                     *
*                    Curtin University, Western Australia                      *
********************************************************************************
* Version = 6.0.0 * Last modified =  12th July 2021                            *
********************************************************************************
*  optimise     - perform optimisation run                                     *
*  conp         - constant pressure calculation                                *
*  conjugate    - use conjugate gradients minimiser                            *
********************************************************************************

  Job Started  at 10:54.07 29th May        2024                               

  Number of CPUs =     1


  Total number of configurations input =      1

********************************************************************************
*  Input for Configuration =   1                                               *
********************************************************************************

  Formula = Ti4O8                                                       

  Number of irreducible atoms/shells =      12


  Total number atoms/shells =      12

  Dimensionality = 3               :  Bulk   



  Cartesian lattice vectors (Angstroms) :

        5.535836    0.000000    0.000000
        0.000000    3.987898    0.000000
        0.000000    0.000000    9.033775

  Cell parameters (Angstroms/Degrees):

  a =       5.5358    alpha =  90.0000
  b =       3.9879    beta  =  90.0000
  c =       9.0338    gamma =  90.0000

  Initial cell volume =         199.432776 Angs**3

  Temperature of configuration =   0.00     K 

  Pressure of configuration =         0.000 GPa 

  Fractional coordinates of asymmetric unit :

--------------------------------------------------------------------------------
   No.  Atomic       x           y          z         Charge      Occupancy
        Label      (Frac)      (Frac)     (Frac)        (e)         (Frac)  
--------------------------------------------------------------------------------
      1 Ti    c    0.000000    0.000000    0.971592     2.19600    1.000000    
      2 Ti    c    0.500000 *  0.000000 *  0.971592 *   2.19600    1.000000    
      3 Ti    c    0.250000 *  0.269414 *  0.347352 *   2.19600    1.000000    
      4 Ti    c    0.750000 *  0.730586 *  0.347352 *   2.19600    1.000000    
      5 O     c    0.666296 *  0.541673 *  0.752335 *  -1.09800    1.000000    
      6 O     c    0.333704 *  0.458327 *  0.752335 *  -1.09800    1.000000    
      7 O     c    0.166296 *  0.458327 *  0.752335 *  -1.09800    1.000000    
      8 O     c    0.833704 *  0.541673 *  0.752335 *  -1.09800    1.000000    
      9 O     c    0.000000 *  0.000000 *  0.246808 *  -1.09800    1.000000    
     10 O     c    0.500000 *  0.000000 *  0.246808 *  -1.09800    1.000000    
     11 O     c    0.000000 *  0.000000 *  0.440136 *  -1.09800    1.000000    
     12 O     c    0.500000 *  0.000000 *  0.440136 *  -1.09800    1.000000    
--------------------------------------------------------------------------------



********************************************************************************
*  General input information                                                   *
********************************************************************************

  Species output for all configurations : 

--------------------------------------------------------------------------------
  Species    Type    Atomic    Atomic    Charge       Radii (Angs)     Library
                     Number     Mass       (e)     Cova   Ionic  VDW   Symbol
--------------------------------------------------------------------------------
    Ti       Core       22      47.88   2.196000   1.470  0.000  2.190          
    O        Core        8      16.00  -1.098000   0.730  0.000  1.360          
--------------------------------------------------------------------------------


  Lattice summation method               =    Ewald          (3-D)
                                         =    Parry          (2-D)
                                         =    Saunders et al (1-D)
  Accuracy factor for lattice sums       =   12.000


  Analytic derivatives to be used

  Time limit = Infinity

  Maximum range for interatomic potentials =    100000.000000 Angstroms

  General interatomic potentials :

--------------------------------------------------------------------------------
Atom  Types   Potential      Parameter       Value         Units   Cutoffs(Ang)
  1     2                                                            Min /  Max 
--------------------------------------------------------------------------------
Ti   c Ti   c Buckingham    Buckingham A     31120.100    eV        0.000 15.000
                            Buckingham rho  0.15400000    Ang       
                            Buckingham C     5.2500000    eV*Ang^6  
--------------------------------------------------------------------------------
O    c O    c Buckingham    Buckingham A     11782.700    eV        0.000 15.000
                            Buckingham rho  0.23400000    Ang       
                            Buckingham C     30.220000    eV*Ang^6  
--------------------------------------------------------------------------------
O    c Ti   c Buckingham    Buckingham A     16957.500    eV        0.000 15.000
                            Buckingham rho  0.19400000    Ang       
                            Buckingham C     12.590000    eV*Ang^6  
--------------------------------------------------------------------------------
Ti   c Ti   c Lennard       Lennard-Jones A  1.0000000    eV*Ang^m  0.000 15.000
                            Lennard-Jones B  0.0000000    eV*Ang^n  
                            Exponent m        12          None
                            Exponent n         6          None
--------------------------------------------------------------------------------
O    c O    c Lennard       Lennard-Jones A  1.0000000    eV*Ang^m  0.000 15.000
                            Lennard-Jones B  0.0000000    eV*Ang^n  
                            Exponent m        12          None
                            Exponent n         6          None
--------------------------------------------------------------------------------
O    c Ti   c Lennard       Lennard-Jones A  1.0000000    eV*Ang^m  0.000 15.000
                            Lennard-Jones B  0.0000000    eV*Ang^n  
                            Exponent m        12          None
                            Exponent n         6          None
--------------------------------------------------------------------------------

********************************************************************************
*  Output for configuration   1                                                *
********************************************************************************


  Components of energy : 

--------------------------------------------------------------------------------
  Interatomic potentials     =         379.45494251 eV    
  Monopole - monopole (real) =          -6.97106989 eV    
  Monopole - monopole (recip)=         -61.30843440 eV    
  Monopole - monopole (total)=         -68.27950428 eV    
--------------------------------------------------------------------------------
  Total lattice energy       =         311.17543823 eV    
--------------------------------------------------------------------------------
  Total lattice energy       =           30023.6730 kJ/(mole unit cells)
--------------------------------------------------------------------------------


  Number of variables =       39

  Maximum number of calculations  =          1000
  Maximum Hessian update interval =            10
  Maximum step size               =   1.000000000
  Maximum parameter tolerance     =   0.000010000
  Maximum function  tolerance     =   0.000010000
  Maximum gradient  tolerance     =   0.001000000
  Maximum gradient  component     =   0.010000000

  Symmetry not applied to optimisation

  Cell parameters to be optimised using strains

  Conjugate gradient optimiser to be used

  Lower half triangular hessian to be used

  Minimiser to switch to BFGS with exact hessian
  When gradient norm is less than     0.500000

  Start of bulk optimisation :

  Cycle:      0 Energy:       311.175438  Gnorm:    198.283596  CPU:    0.018
  Cycle:      1 Energy:        25.553648  Gnorm:     21.921744  CPU:    0.037
  Cycle:      2 Energy:       -51.260616  Gnorm:     38.715086  CPU:    0.064
  Cycle:      3 Energy:       -95.394788  Gnorm:      8.564478  CPU:    0.080
  Cycle:      4 Energy:      -106.660370  Gnorm:      8.044307  CPU:    0.096
  Cycle:      5 Energy:      -116.635126  Gnorm:      3.438167  CPU:    0.115
  Cycle:      6 Energy:      -123.907927  Gnorm:      3.105087  CPU:    0.133
  Cycle:      7 Energy:      -128.646010  Gnorm:      2.269653  CPU:    0.155
  Cycle:      8 Energy:      -130.710162  Gnorm:      2.869843  CPU:    0.173
  Cycle:      9 Energy:      -132.876201  Gnorm:      1.842011  CPU:    0.189
  Cycle:     10 Energy:      -135.252591  Gnorm:      1.665811  CPU:    0.210
  Cycle:     11 Energy:      -136.159735  Gnorm:      1.085540  CPU:    0.223
  Cycle:     12 Energy:      -136.596373  Gnorm:      0.594521  CPU:    0.240
  Cycle:     13 Energy:      -136.779350  Gnorm:      0.751912  CPU:    0.257
  Cycle:     14 Energy:      -137.021046  Gnorm:      0.416479  CPU:    0.275
  ** Hessian calculated **
  Cycle:     15 Energy:      -137.142794  Gnorm:      0.249853  CPU:    0.319
  Cycle:     16 Energy:      -137.177259  Gnorm:      0.137188  CPU:    0.339
  Cycle:     17 Energy:      -137.197371  Gnorm:      0.215732  CPU:    0.356
  ** Hessian calculated **
  Cycle:     18 Energy:      -137.222463  Gnorm:      0.158399  CPU:    0.400
  Cycle:     19 Energy:      -137.372252  Gnorm:      0.895333  CPU:    0.425
  Cycle:     20 Energy:      -137.505588  Gnorm:      1.728899  CPU:    0.447
  ** Hessian calculated **
  Cycle:     21 Energy:      -138.249887  Gnorm:      0.723972  CPU:    0.497
  Cycle:     22 Energy:      -138.846435  Gnorm:      0.844117  CPU:    0.519
  Cycle:     23 Energy:      -139.470392  Gnorm:      1.095573  CPU:    0.543
  Cycle:     24 Energy:      -140.623798  Gnorm:      1.391505  CPU:    0.572
  Cycle:     25 Energy:      -141.867301  Gnorm:      1.465318  CPU:    0.593
  Cycle:     26 Energy:      -143.312795  Gnorm:      1.464015  CPU:    0.616
  Cycle:     27 Energy:      -143.720840  Gnorm:      1.423966  CPU:    0.639
  Cycle:     28 Energy:      -144.451481  Gnorm:      0.957459  CPU:    0.667
  Cycle:     29 Energy:      -144.965539  Gnorm:      0.533371  CPU:    0.689
  Cycle:     30 Energy:      -144.980756  Gnorm:      0.506111  CPU:    0.716
  ** Hessian calculated **
  Cycle:     31 Energy:      -145.364650  Gnorm:      0.284887  CPU:    0.783
  ** Hessian calculated **
  Cycle:     32 Energy:      -145.482831  Gnorm:      0.149074  CPU:    0.845
  Cycle:     33 Energy:      -145.529956  Gnorm:      0.171930  CPU:    0.881
  Cycle:     34 Energy:      -145.565340  Gnorm:      0.194599  CPU:    0.910
  Cycle:     35 Energy:      -145.652476  Gnorm:      0.242222  CPU:    0.959
  Cycle:     36 Energy:      -145.654012  Gnorm:      0.279216  CPU:    0.989
  ** Hessian calculated **
  Cycle:     37 Energy:      -145.768585  Gnorm:      0.537154  CPU:    1.052
  Cycle:     38 Energy:      -145.956267  Gnorm:      0.694632  CPU:    1.082
  Cycle:     39 Energy:      -146.344116  Gnorm:      0.796995  CPU:    1.115
  Cycle:     40 Energy:      -146.448219  Gnorm:      0.933524  CPU:    1.137
  ** Hessian calculated **
  Cycle:     41 Energy:      -147.357253  Gnorm:      0.970810  CPU:    1.202
  ** Hessian calculated **
  Cycle:     42 Energy:      -147.881712  Gnorm:      0.540849  CPU:    1.265
  Cycle:     43 Energy:      -148.676882  Gnorm:      1.290411  CPU:    1.307
  Cycle:     44 Energy:      -149.155755  Gnorm:      1.405892  CPU:    1.355
  Cycle:     45 Energy:      -149.636974  Gnorm:      1.091348  CPU:    1.392
  Cycle:     46 Energy:      -150.459626  Gnorm:      1.026183  CPU:    1.439
  Cycle:     47 Energy:      -151.059792  Gnorm:      1.024345  CPU:    1.483
  Cycle:     48 Energy:      -151.426478  Gnorm:      0.870645  CPU:    1.513
  Cycle:     49 Energy:      -151.893595  Gnorm:      0.779480  CPU:    1.542
  Cycle:     50 Energy:      -152.410750  Gnorm:      0.780889  CPU:    1.579
  Cycle:     51 Energy:      -152.563581  Gnorm:      0.601381  CPU:    1.609
  ** Hessian calculated **
  Cycle:     52 Energy:      -152.789399  Gnorm:      0.375214  CPU:    1.676
  Cycle:     53 Energy:      -153.081289  Gnorm:      0.541033  CPU:    1.712
  Cycle:     54 Energy:      -153.436353  Gnorm:      0.408726  CPU:    1.756
  Cycle:     55 Energy:      -153.664894  Gnorm:      0.641734  CPU:    1.795
  Cycle:     56 Energy:      -153.878529  Gnorm:      0.596768  CPU:    1.834
  Cycle:     57 Energy:      -154.182784  Gnorm:      0.584473  CPU:    1.875
  Cycle:     58 Energy:      -154.523433  Gnorm:      0.456159  CPU:    1.906
  Cycle:     59 Energy:      -154.677315  Gnorm:      0.575051  CPU:    1.945
  Cycle:     60 Energy:      -154.844507  Gnorm:      0.375372  CPU:    1.992
  Cycle:     61 Energy:      -154.970204  Gnorm:      0.300639  CPU:    2.043
  ** Hessian calculated **
  Cycle:     62 Energy:      -155.036800  Gnorm:      0.239237  CPU:    2.127
  Cycle:     63 Energy:      -155.043603  Gnorm:      0.195911  CPU:    2.168
  ** Hessian calculated **
  Cycle:     64 Energy:      -155.384446  Gnorm:      0.184922  CPU:    2.273
  Cycle:     65 Energy:      -155.422533  Gnorm:      0.235203  CPU:    2.326
  Cycle:     66 Energy:      -155.483986  Gnorm:      0.272751  CPU:    2.378
  Cycle:     67 Energy:      -155.563265  Gnorm:      0.445859  CPU:    2.441
  Cycle:     68 Energy:      -155.714001  Gnorm:      0.486941  CPU:    2.503
  Cycle:     69 Energy:      -155.814391  Gnorm:      0.423184  CPU:    2.547
  Cycle:     70 Energy:      -155.957446  Gnorm:      0.409516  CPU:    2.599
  Cycle:     71 Energy:      -156.038196  Gnorm:      0.278683  CPU:    2.641
  Cycle:     72 Energy:      -156.134189  Gnorm:      0.408225  CPU:    2.685
  Cycle:     73 Energy:      -156.233181  Gnorm:      0.364631  CPU:    2.738
  ** Hessian calculated **
  Cycle:     74 Energy:      -156.402495  Gnorm:      0.411644  CPU:    2.824
  Cycle:     75 Energy:      -156.551196  Gnorm:      0.368409  CPU:    2.876
  Cycle:     76 Energy:      -156.676489  Gnorm:      0.311919  CPU:    2.913
  Cycle:     77 Energy:      -156.747595  Gnorm:      0.161709  CPU:    2.946
  Cycle:     78 Energy:      -156.777200  Gnorm:      0.125407  CPU:    2.979
  Cycle:     79 Energy:      -156.797489  Gnorm:      0.091844  CPU:    3.019
  Cycle:     80 Energy:      -156.809895  Gnorm:      0.107795  CPU:    3.052
  Cycle:     81 Energy:      -156.832589  Gnorm:      0.110230  CPU:    3.092
  Cycle:     82 Energy:      -156.866354  Gnorm:      0.140027  CPU:    3.133
  Cycle:     83 Energy:      -156.901738  Gnorm:      0.115152  CPU:    3.173
  ** Hessian calculated **
  Cycle:     84 Energy:      -156.928507  Gnorm:      0.071576  CPU:    3.248
  Cycle:     85 Energy:      -156.938888  Gnorm:      0.023552  CPU:    3.281
  Cycle:     86 Energy:      -156.939491  Gnorm:      0.004562  CPU:    3.321
  Cycle:     87 Energy:      -156.939523  Gnorm:      0.001164  CPU:    3.355


  **** Optimisation achieved ****


  Final energy =    -156.93952663 eV      
  Final Gnorm  =       0.00019047

  Components of energy : 

--------------------------------------------------------------------------------
  Interatomic potentials     =          12.41609733 eV    
  Monopole - monopole (real) =         -67.18321190 eV    
  Monopole - monopole (recip)=        -102.17241206 eV    
  Monopole - monopole (total)=        -169.35562396 eV    
--------------------------------------------------------------------------------
  Total lattice energy       =        -156.93952663 eV    
--------------------------------------------------------------------------------
  Total lattice energy       =          -15142.2653 kJ/(mole unit cells)
--------------------------------------------------------------------------------

  Final fractional coordinates of atoms :

--------------------------------------------------------------------------------
   No.  Atomic        x           y          z          Radius
        Label       (Frac)      (Frac)     (Frac)       (Angs) 
--------------------------------------------------------------------------------
     1  Ti    c     0.000000    0.000000    0.971592    0.000000
     2  Ti    c     0.479621    0.979607    0.930845    0.000000
     3  Ti    c     0.239951    0.740000    0.451476    0.000000
     4  Ti    c     0.719578    0.719588    0.410733    0.000000
     5  O     c     0.859808    0.859820    0.691164    0.000000
     6  O     c     0.359798    0.359670    0.691177    0.000000
     7  O     c     0.199317    0.699321    0.965663    0.000000
     8  O     c     0.794740    0.294739    0.965638    0.000000
     9  O     c     0.149173    0.149203    0.269930    0.000000
    10  O     c     0.570411    0.570411    0.112398    0.000000
    11  O     c     0.924832    0.424843    0.416674    0.000000
    12  O     c     0.520267    0.020277    0.416677    0.000000
--------------------------------------------------------------------------------

  Final Cartesian lattice vectors (Angstroms) :

        6.624709   -1.496830   -1.753950
       -0.704704    2.927554    0.009635
       -1.218266   -0.316830    7.111228


  Final cell parameters and derivatives :

--------------------------------------------------------------------------------
       a            7.014528 Angstrom     dE/de1(xx)     0.000746 eV/strain
       b            3.011192 Angstrom     dE/de2(yy)    -0.000135 eV/strain
       c            7.221781 Angstrom     dE/de3(zz)     0.000810 eV/strain
       alpha       90.001333 Degrees      dE/de4(yz)    -0.000113 eV/strain
       beta       113.339235 Degrees      dE/de5(xz)    -0.000488 eV/strain
       gamma      115.422233 Degrees      dE/de6(xy)    -0.000553 eV/strain
--------------------------------------------------------------------------------

  Primitive cell volume =           123.806108 Angs**3

  Density of cell =      4.285603 g/cm**3

  Non-primitive cell volume =           123.806108 Angs**3


  Final internal derivatives :

--------------------------------------------------------------------------------
   No.  Atomic          a             b             c           Radius
        Label          (eV)          (eV)          (eV)        (eV/Angs)
--------------------------------------------------------------------------------
      1 Ti    c       0.000000      0.000000      0.000000      0.000000
      2 Ti    c      -0.002763     -0.000159     -0.002195      0.000000
      3 Ti    c      -0.000707      0.001093     -0.000074      0.000000
      4 Ti    c      -0.001043     -0.000055     -0.000079      0.000000
      5 O     c      -0.000321      0.000128      0.002702      0.000000
      6 O     c       0.002743     -0.001279      0.004153      0.000000
      7 O     c       0.000026      0.000394     -0.000137      0.000000
      8 O     c      -0.000581      0.000181     -0.000897      0.000000
      9 O     c       0.000947     -0.000037     -0.000599      0.000000
     10 O     c       0.000765     -0.000181     -0.000353      0.000000
     11 O     c       0.000047     -0.000115     -0.000616      0.000000
     12 O     c      -0.000573      0.000088     -0.000461      0.000000
--------------------------------------------------------------------------------
  Maximum abs         0.002763      0.001279      0.004153      0.000000
--------------------------------------------------------------------------------


  Time to end of optimisation =       3.3880 seconds


  Peak dynamic memory used =       1.84 MB 


  Timing analysis for GULP :

--------------------------------------------------------------------------------
  Task / Subroutine                                          Time (Seconds)
--------------------------------------------------------------------------------
  Calculation of reciprocal space energy and derivatives          0.1312
  Calculation of real space energy and derivatives                3.2234
  Calculation and manipulation of Hessian matrix                  0.0015
  Calculation of matrix inversion                                 0.0026
  Global summation overhead                                       0.0006
--------------------------------------------------------------------------------
  Total CPU time                                                  3.3880
--------------------------------------------------------------------------------


  Job Finished at 10:54.10 29th May        2024                               

