********************************************************************************
*                       GENERAL UTILITY LATTICE PROGRAM                        *
*                                 Julian Gale                                  *
*                       Curtin Institute for Computation                       *
*                    School of Molecular and Life Sciences                     *
*                    Curtin University, Western Australia                      *
********************************************************************************
* Version = 6.0.0 * Last modified =  12th July 2021                            *
********************************************************************************
*  optimise     - perform optimisation run                                     *
*  conp         - constant pressure calculation                                *
*  conjugate    - use conjugate gradients minimiser                            *
********************************************************************************

  Job Started  at 10:53.53 29th May        2024                               

  Number of CPUs =     1


  Total number of configurations input =      1

********************************************************************************
*  Input for Configuration =   1                                               *
********************************************************************************

  Formula = Ti4O8                                                       

  Number of irreducible atoms/shells =      12


  Total number atoms/shells =      12

  Dimensionality = 3               :  Bulk   



  Cartesian lattice vectors (Angstroms) :

        5.000883    0.000000    0.000000
        0.000000    3.218370    0.000000
        0.000000    0.000000    8.945708

  Cell parameters (Angstroms/Degrees):

  a =       5.0009    alpha =  90.0000
  b =       3.2184    beta  =  90.0000
  c =       8.9457    gamma =  90.0000

  Initial cell volume =         143.978411 Angs**3

  Temperature of configuration =   0.00     K 

  Pressure of configuration =         0.000 GPa 

  Fractional coordinates of asymmetric unit :

--------------------------------------------------------------------------------
   No.  Atomic       x           y          z         Charge      Occupancy
        Label      (Frac)      (Frac)     (Frac)        (e)         (Frac)  
--------------------------------------------------------------------------------
      1 Ti    c    0.000000    0.000000    0.500000     2.19600    1.000000    
      2 Ti    c    0.500000 *  0.500000 *  0.000000 *   2.19600    1.000000    
      3 Ti    c    0.000000 *  0.000000 *  0.000000 *   2.19600    1.000000    
      4 Ti    c    0.500000 *  0.500000 *  0.500000 *   2.19600    1.000000    
      5 O     c    0.241366 *  0.474271 *  0.566553 *  -1.09800    1.000000    
      6 O     c    0.758634 *  0.525729 *  0.566553 *  -1.09800    1.000000    
      7 O     c    0.758634 *  0.474271 *  0.433447 *  -1.09800    1.000000    
      8 O     c    0.241366 *  0.525729 *  0.433447 *  -1.09800    1.000000    
      9 O     c    0.741366 *  0.974271 *  0.066553 *  -1.09800    1.000000    
     10 O     c    0.258634 *  0.025729 *  0.066553 *  -1.09800    1.000000    
     11 O     c    0.258634 *  0.974271 *  0.933447 *  -1.09800    1.000000    
     12 O     c    0.741366 *  0.025729 *  0.933447 *  -1.09800    1.000000    
--------------------------------------------------------------------------------



********************************************************************************
*  General input information                                                   *
********************************************************************************

  Species output for all configurations : 

--------------------------------------------------------------------------------
  Species    Type    Atomic    Atomic    Charge       Radii (Angs)     Library
                     Number     Mass       (e)     Cova   Ionic  VDW   Symbol
--------------------------------------------------------------------------------
    Ti       Core       22      47.88   2.196000   1.470  0.000  2.190          
    O        Core        8      16.00  -1.098000   0.730  0.000  1.360          
--------------------------------------------------------------------------------


  Lattice summation method               =    Ewald          (3-D)
                                         =    Parry          (2-D)
                                         =    Saunders et al (1-D)
  Accuracy factor for lattice sums       =   12.000


  Analytic derivatives to be used

  Time limit = Infinity

  Maximum range for interatomic potentials =    100000.000000 Angstroms

  General interatomic potentials :

--------------------------------------------------------------------------------
Atom  Types   Potential      Parameter       Value         Units   Cutoffs(Ang)
  1     2                                                            Min /  Max 
--------------------------------------------------------------------------------
Ti   c Ti   c Buckingham    Buckingham A     31120.100    eV        0.000 15.000
                            Buckingham rho  0.15400000    Ang       
                            Buckingham C     5.2500000    eV*Ang^6  
--------------------------------------------------------------------------------
O    c O    c Buckingham    Buckingham A     11782.700    eV        0.000 15.000
                            Buckingham rho  0.23400000    Ang       
                            Buckingham C     30.220000    eV*Ang^6  
--------------------------------------------------------------------------------
O    c Ti   c Buckingham    Buckingham A     16957.500    eV        0.000 15.000
                            Buckingham rho  0.19400000    Ang       
                            Buckingham C     12.590000    eV*Ang^6  
--------------------------------------------------------------------------------
Ti   c Ti   c Lennard       Lennard-Jones A  1.0000000    eV*Ang^m  0.000 15.000
                            Lennard-Jones B  0.0000000    eV*Ang^n  
                            Exponent m        12          None
                            Exponent n         6          None
--------------------------------------------------------------------------------
O    c O    c Lennard       Lennard-Jones A  1.0000000    eV*Ang^m  0.000 15.000
                            Lennard-Jones B  0.0000000    eV*Ang^n  
                            Exponent m        12          None
                            Exponent n         6          None
--------------------------------------------------------------------------------
O    c Ti   c Lennard       Lennard-Jones A  1.0000000    eV*Ang^m  0.000 15.000
                            Lennard-Jones B  0.0000000    eV*Ang^n  
                            Exponent m        12          None
                            Exponent n         6          None
--------------------------------------------------------------------------------

********************************************************************************
*  Output for configuration   1                                                *
********************************************************************************


  Components of energy : 

--------------------------------------------------------------------------------
  Interatomic potentials     =         315.80914652 eV    
  Monopole - monopole (real) =         -78.91800258 eV    
  Monopole - monopole (recip)=         -97.36596841 eV    
  Monopole - monopole (total)=        -176.28397098 eV    
--------------------------------------------------------------------------------
  Total lattice energy       =         139.52517554 eV    
--------------------------------------------------------------------------------
  Total lattice energy       =           13462.0466 kJ/(mole unit cells)
--------------------------------------------------------------------------------


  Number of variables =       39

  Maximum number of calculations  =          1000
  Maximum Hessian update interval =            10
  Maximum step size               =   1.000000000
  Maximum parameter tolerance     =   0.000010000
  Maximum function  tolerance     =   0.000010000
  Maximum gradient  tolerance     =   0.001000000
  Maximum gradient  component     =   0.010000000

  Symmetry not applied to optimisation

  Cell parameters to be optimised using strains

  Conjugate gradient optimiser to be used

  Lower half triangular hessian to be used

  Minimiser to switch to BFGS with exact hessian
  When gradient norm is less than     0.500000

  Start of bulk optimisation :

  Cycle:      0 Energy:       139.525176  Gnorm:    178.158127  CPU:    0.020
  Cycle:      1 Energy:      -135.880044  Gnorm:      1.855157  CPU:    0.048
  Cycle:      2 Energy:      -137.844657  Gnorm:      2.106358  CPU:    0.071
  Cycle:      3 Energy:      -139.278336  Gnorm:      0.861372  CPU:    0.090
  Cycle:      4 Energy:      -139.771529  Gnorm:      0.665792  CPU:    0.112
  Cycle:      5 Energy:      -139.992927  Gnorm:      0.789952  CPU:    0.131
  Cycle:      6 Energy:      -140.266806  Gnorm:      0.458350  CPU:    0.155
  ** Hessian calculated **
  Cycle:      7 Energy:      -143.347094  Gnorm:      2.751276  CPU:    0.223
  ** Hessian calculated **
  Cycle:      8 Energy:      -147.399518  Gnorm:      0.697336  CPU:    0.278
  Cycle:      9 Energy:      -148.876129  Gnorm:      0.497473  CPU:    0.296
  Cycle:     10 Energy:      -150.388700  Gnorm:      0.682971  CPU:    0.319
  Cycle:     11 Energy:      -152.151484  Gnorm:      0.384954  CPU:    0.347
  Cycle:     12 Energy:      -152.428966  Gnorm:      0.352251  CPU:    0.372
  Cycle:     13 Energy:      -152.663146  Gnorm:      0.252378  CPU:    0.393
  Cycle:     14 Energy:      -152.708672  Gnorm:      0.247716  CPU:    0.417
  Cycle:     15 Energy:      -152.735735  Gnorm:      0.221212  CPU:    0.437
  Cycle:     16 Energy:      -152.738915  Gnorm:      0.216017  CPU:    0.458
  Cycle:     17 Energy:      -152.782136  Gnorm:      0.181348  CPU:    0.483
  ** Hessian calculated **
  Cycle:     18 Energy:      -152.855070  Gnorm:      0.017055  CPU:    0.544
  Cycle:     19 Energy:      -152.855557  Gnorm:      0.002084  CPU:    0.565
  Cycle:     20 Energy:      -152.855580  Gnorm:      0.000365  CPU:    0.586
  ** Hessian calculated **


  **** Optimisation achieved ****


  Final energy =    -152.85558000 eV      
  Final Gnorm  =       0.00023782

  Components of energy : 

--------------------------------------------------------------------------------
  Interatomic potentials     =          12.83594498 eV    
  Monopole - monopole (real) =         -64.85171197 eV    
  Monopole - monopole (recip)=        -100.83981301 eV    
  Monopole - monopole (total)=        -165.69152498 eV    
--------------------------------------------------------------------------------
  Total lattice energy       =        -152.85558000 eV    
--------------------------------------------------------------------------------
  Total lattice energy       =          -14748.2269 kJ/(mole unit cells)
--------------------------------------------------------------------------------

  Final fractional coordinates of atoms :

--------------------------------------------------------------------------------
   No.  Atomic        x           y          z          Radius
        Label       (Frac)      (Frac)     (Frac)       (Angs) 
--------------------------------------------------------------------------------
     1  Ti    c     0.000000    0.000000    0.500000    0.000000
     2  Ti    c     0.499999    0.500149    0.000000    0.000000
     3  Ti    c     0.999999    0.000171    0.000000    0.000000
     4  Ti    c     0.500000    0.499971    0.500000    0.000000
     5  O     c     0.249944    0.250045    0.644856    0.000000
     6  O     c     0.749937    0.750052    0.644829    0.000000
     7  O     c     0.750055    0.250044    0.355144    0.000000
     8  O     c     0.250062    0.750052    0.355170    0.000000
     9  O     c     0.750062    0.750090    0.144829    0.000000
    10  O     c     0.250055    0.250097    0.144856    0.000000
    11  O     c     0.249937    0.750090    0.855170    0.000000
    12  O     c     0.749944    0.250098    0.855144    0.000000
--------------------------------------------------------------------------------

  Final Cartesian lattice vectors (Angstroms) :

        4.695089    0.000044    0.000000
       -0.000040    4.695069    0.000001
       -0.000000   -0.000001    5.854632


  Final cell parameters and derivatives :

--------------------------------------------------------------------------------
       a            4.695089 Angstrom     dE/de1(xx)    -0.002901 eV/strain
       b            4.695069 Angstrom     dE/de2(yy)    -0.003392 eV/strain
       c            5.854632 Angstrom     dE/de3(zz)    -0.001523 eV/strain
       alpha       90.000000 Degrees      dE/de4(yz)    -0.000000 eV/strain
       beta        90.000000 Degrees      dE/de5(xz)    -0.000822 eV/strain
       gamma       89.999952 Degrees      dE/de6(xy)    -0.000018 eV/strain
--------------------------------------------------------------------------------

  Primitive cell volume =           129.058134 Angs**3

  Density of cell =      4.111201 g/cm**3

  Non-primitive cell volume =           129.058134 Angs**3


  Final internal derivatives :

--------------------------------------------------------------------------------
   No.  Atomic          a             b             c           Radius
        Label          (eV)          (eV)          (eV)        (eV/Angs)
--------------------------------------------------------------------------------
      1 Ti    c       0.000000      0.000000      0.000000      0.000000
      2 Ti    c       0.000003     -0.005415     -0.000019      0.000000
      3 Ti    c      -0.000008     -0.001630     -0.000021      0.000000
      4 Ti    c       0.000018      0.001226     -0.000032      0.000000
      5 O     c       0.000561     -0.000052     -0.001645      0.000000
      6 O     c      -0.000234      0.000979     -0.000791      0.000000
      7 O     c      -0.000598     -0.000016      0.001709      0.000000
      8 O     c       0.000196      0.001015      0.000793      0.000000
      9 O     c      -0.000581     -0.001945     -0.001334      0.000000
     10 O     c      -0.001361     -0.000900     -0.001108      0.000000
     11 O     c       0.000608     -0.001971      0.001325      0.000000
     12 O     c       0.001399     -0.000937      0.001159      0.000000
--------------------------------------------------------------------------------
  Maximum abs         0.001399      0.005415      0.001709      0.000000
--------------------------------------------------------------------------------


  Time to end of optimisation =       0.6435 seconds


  Peak dynamic memory used =       1.84 MB 


  Timing analysis for GULP :

--------------------------------------------------------------------------------
  Task / Subroutine                                          Time (Seconds)
--------------------------------------------------------------------------------
  Calculation of reciprocal space energy and derivatives          0.0326
  Calculation of real space energy and derivatives                0.5960
  Calculation and manipulation of Hessian matrix                  0.0004
  Calculation of matrix inversion                                 0.0008
  Global summation overhead                                       0.0001
--------------------------------------------------------------------------------
  Total CPU time                                                  0.6435
--------------------------------------------------------------------------------


  Job Finished at 10:53.53 29th May        2024                               

