********************************************************************************
*                       GENERAL UTILITY LATTICE PROGRAM                        *
*                                 Julian Gale                                  *
*                       Curtin Institute for Computation                       *
*                    School of Molecular and Life Sciences                     *
*                    Curtin University, Western Australia                      *
********************************************************************************
* Version = 6.0.0 * Last modified =  12th July 2021                            *
********************************************************************************
*  optimise     - perform optimisation run                                     *
*  conp         - constant pressure calculation                                *
*  conjugate    - use conjugate gradients minimiser                            *
********************************************************************************

  Job Started  at 10:53.25 29th May        2024                               

  Number of CPUs =     1


  Total number of configurations input =      1

********************************************************************************
*  Input for Configuration =   1                                               *
********************************************************************************

  Formula = Ti4O8                                                       

  Number of irreducible atoms/shells =      12


  Total number atoms/shells =      12

  Dimensionality = 3               :  Bulk   



  Cartesian lattice vectors (Angstroms) :

        5.798039    0.000000    0.652076
        0.000000    3.957854    0.000000
        0.000000    0.000000    5.080003

  Cell parameters (Angstroms/Degrees):

  a =       5.8346    alpha =  90.0000
  b =       3.9579    beta  =  83.5832
  c =       5.0800    gamma =  90.0000

  Initial cell volume =         116.574839 Angs**3

  Temperature of configuration =   0.00     K 

  Pressure of configuration =         0.000 GPa 

  Fractional coordinates of asymmetric unit :

--------------------------------------------------------------------------------
   No.  Atomic       x           y          z         Charge      Occupancy
        Label      (Frac)      (Frac)     (Frac)        (e)         (Frac)  
--------------------------------------------------------------------------------
      1 Ti    c    0.257898    0.500000    0.990417     2.19600    1.000000    
      2 Ti    c    0.847719 *  0.000000 *  0.946837 *   2.19600    1.000000    
      3 Ti    c    0.667340 *  0.500000 *  0.694395 *   2.19600    1.000000    
      4 Ti    c    0.334244 *  0.000000 *  0.877195 *   2.19600    1.000000    
      5 O     c    0.498464 *  0.500000 *  0.138370 *  -1.09800    1.000000    
      6 O     c    0.044165 *  0.000000 *  0.209310 *  -1.09800    1.000000    
      7 O     c    0.723755 *  0.000000 *  0.215777 *  -1.09800    1.000000    
      8 O     c    0.078492 *  0.096995 *  0.894010 *  -1.09800    1.000000    
      9 O     c    0.078492 *  0.903005 *  0.894010 *  -1.09800    1.000000    
     10 O     c    0.155233 *  0.763968 *  0.845688 *  -1.09800    1.000000    
     11 O     c    0.155233 *  0.236032 *  0.845688 *  -1.09800    1.000000    
     12 O     c    0.080004 *  0.500000 *  0.350667 *  -1.09800    1.000000    
--------------------------------------------------------------------------------



********************************************************************************
*  General input information                                                   *
********************************************************************************

  Species output for all configurations : 

--------------------------------------------------------------------------------
  Species    Type    Atomic    Atomic    Charge       Radii (Angs)     Library
                     Number     Mass       (e)     Cova   Ionic  VDW   Symbol
--------------------------------------------------------------------------------
    Ti       Core       22      47.88   2.196000   1.470  0.000  2.190          
    O        Core        8      16.00  -1.098000   0.730  0.000  1.360          
--------------------------------------------------------------------------------


  Lattice summation method               =    Ewald          (3-D)
                                         =    Parry          (2-D)
                                         =    Saunders et al (1-D)
  Accuracy factor for lattice sums       =   12.000


  Analytic derivatives to be used

  Time limit = Infinity

  Maximum range for interatomic potentials =    100000.000000 Angstroms

  General interatomic potentials :

--------------------------------------------------------------------------------
Atom  Types   Potential      Parameter       Value         Units   Cutoffs(Ang)
  1     2                                                            Min /  Max 
--------------------------------------------------------------------------------
Ti   c Ti   c Buckingham    Buckingham A     31120.100    eV        0.000 15.000
                            Buckingham rho  0.15400000    Ang       
                            Buckingham C     5.2500000    eV*Ang^6  
--------------------------------------------------------------------------------
O    c O    c Buckingham    Buckingham A     11782.700    eV        0.000 15.000
                            Buckingham rho  0.23400000    Ang       
                            Buckingham C     30.220000    eV*Ang^6  
--------------------------------------------------------------------------------
O    c Ti   c Buckingham    Buckingham A     16957.500    eV        0.000 15.000
                            Buckingham rho  0.19400000    Ang       
                            Buckingham C     12.590000    eV*Ang^6  
--------------------------------------------------------------------------------
Ti   c Ti   c Lennard       Lennard-Jones A  1.0000000    eV*Ang^m  0.000 15.000
                            Lennard-Jones B  0.0000000    eV*Ang^n  
                            Exponent m        12          None
                            Exponent n         6          None
--------------------------------------------------------------------------------
O    c O    c Lennard       Lennard-Jones A  1.0000000    eV*Ang^m  0.000 15.000
                            Lennard-Jones B  0.0000000    eV*Ang^n  
                            Exponent m        12          None
                            Exponent n         6          None
--------------------------------------------------------------------------------
O    c Ti   c Lennard       Lennard-Jones A  1.0000000    eV*Ang^m  0.000 15.000
                            Lennard-Jones B  0.0000000    eV*Ang^n  
                            Exponent m        12          None
                            Exponent n         6          None
--------------------------------------------------------------------------------

********************************************************************************
*  Output for configuration   1                                                *
********************************************************************************


  Components of energy : 

--------------------------------------------------------------------------------
  Interatomic potentials     =        1198.53001990 eV    
  Monopole - monopole (real) =         -18.49099552 eV    
  Monopole - monopole (recip)=         -90.50023321 eV    
  Monopole - monopole (total)=        -108.99122874 eV    
--------------------------------------------------------------------------------
  Total lattice energy       =        1089.53879116 eV    
--------------------------------------------------------------------------------
  Total lattice energy       =          105123.8382 kJ/(mole unit cells)
--------------------------------------------------------------------------------


  Number of variables =       39

  Maximum number of calculations  =          1000
  Maximum Hessian update interval =            10
  Maximum step size               =   1.000000000
  Maximum parameter tolerance     =   0.000010000
  Maximum function  tolerance     =   0.000010000
  Maximum gradient  tolerance     =   0.001000000
  Maximum gradient  component     =   0.010000000

  Symmetry not applied to optimisation

  Cell parameters to be optimised using strains

  Conjugate gradient optimiser to be used

  Lower half triangular hessian to be used

  Minimiser to switch to BFGS with exact hessian
  When gradient norm is less than     0.500000

  Start of bulk optimisation :

  Cycle:      0 Energy:      1089.538791  Gnorm:    300.988187  CPU:    0.023
  Cycle:      1 Energy:       283.151164  Gnorm:    131.593117  CPU:    0.048
  Cycle:      2 Energy:        37.329917  Gnorm:     62.516265  CPU:    0.099
  Cycle:      3 Energy:       -84.206606  Gnorm:     13.325829  CPU:    0.137
  Cycle:      4 Energy:      -108.247975  Gnorm:      6.024436  CPU:    0.172
  Cycle:      5 Energy:      -133.203316  Gnorm:      2.774785  CPU:    0.195
  Cycle:      6 Energy:      -140.200268  Gnorm:      1.733894  CPU:    0.216
  Cycle:      7 Energy:      -144.343442  Gnorm:      1.718742  CPU:    0.238
  Cycle:      8 Energy:      -147.606382  Gnorm:      1.083775  CPU:    0.257
  Cycle:      9 Energy:      -148.773275  Gnorm:      1.183745  CPU:    0.281
  Cycle:     10 Energy:      -149.873079  Gnorm:      0.706624  CPU:    0.301
  Cycle:     11 Energy:      -151.591156  Gnorm:      0.786316  CPU:    0.333
  Cycle:     12 Energy:      -152.458919  Gnorm:      0.809676  CPU:    0.357
  Cycle:     13 Energy:      -152.928547  Gnorm:      0.786097  CPU:    0.379
  Cycle:     14 Energy:      -153.608431  Gnorm:      0.760981  CPU:    0.405
  Cycle:     15 Energy:      -154.037199  Gnorm:      0.532471  CPU:    0.426
  Cycle:     16 Energy:      -154.684276  Gnorm:      0.532148  CPU:    0.457
  Cycle:     17 Energy:      -155.108753  Gnorm:      0.511346  CPU:    0.479
  Cycle:     18 Energy:      -155.388519  Gnorm:      0.345886  CPU:    0.500
  ** Hessian calculated **
  Cycle:     19 Energy:      -155.754277  Gnorm:      0.154556  CPU:    0.566
  Cycle:     20 Energy:      -155.786595  Gnorm:      0.058661  CPU:    0.592
  Cycle:     21 Energy:      -155.796017  Gnorm:      0.150624  CPU:    0.623
  Cycle:     22 Energy:      -155.799849  Gnorm:      0.199171  CPU:    0.649
  Cycle:     23 Energy:      -155.847807  Gnorm:      0.385925  CPU:    0.675
  Cycle:     24 Energy:      -156.100287  Gnorm:      0.627837  CPU:    0.701
  Cycle:     25 Energy:      -156.352452  Gnorm:      0.806119  CPU:    0.723
  ** Hessian calculated **
  Cycle:     26 Energy:      -157.172493  Gnorm:      0.253568  CPU:    0.787
  Cycle:     27 Energy:      -157.257617  Gnorm:      0.133401  CPU:    0.815
  Cycle:     28 Energy:      -157.271654  Gnorm:      0.065216  CPU:    0.843
  Cycle:     29 Energy:      -157.275057  Gnorm:      0.028606  CPU:    0.866
  Cycle:     30 Energy:      -157.275912  Gnorm:      0.008303  CPU:    0.889
  Cycle:     31 Energy:      -157.276014  Gnorm:      0.004801  CPU:    0.912
  Cycle:     32 Energy:      -157.276045  Gnorm:      0.001479  CPU:    0.935


  **** Optimisation achieved ****


  Final energy =    -157.27604887 eV      
  Final Gnorm  =       0.00035294

  Components of energy : 

--------------------------------------------------------------------------------
  Interatomic potentials     =          11.64899406 eV    
  Monopole - monopole (real) =         -63.05212767 eV    
  Monopole - monopole (recip)=        -105.87291526 eV    
  Monopole - monopole (total)=        -168.92504293 eV    
--------------------------------------------------------------------------------
  Total lattice energy       =        -157.27604887 eV    
--------------------------------------------------------------------------------
  Total lattice energy       =          -15174.7345 kJ/(mole unit cells)
--------------------------------------------------------------------------------

  Final fractional coordinates of atoms :

--------------------------------------------------------------------------------
   No.  Atomic        x           y          z          Radius
        Label       (Frac)      (Frac)     (Frac)       (Angs) 
--------------------------------------------------------------------------------
     1  Ti    c     0.257898    0.500000    0.990417    0.000000
     2  Ti    c     0.699670    0.000000    0.990423    0.000000
     3  Ti    c     0.757897    0.500000    0.550164    0.000000
     4  Ti    c     0.199665    0.000000    0.550129    0.000000
     5  O     c     0.601257    0.500000    0.181992    0.000000
     6  O     c     0.856296    0.000000    0.358584    0.000000
     7  O     c     0.356303    0.000000    0.181979    0.000000
     8  O     c     0.978777    0.249999    0.820866    0.000000
     9  O     c     0.978777    0.750001    0.820866    0.000000
    10  O     c     0.478776    0.749997    0.719708    0.000000
    11  O     c     0.478776    0.250003    0.719708    0.000000
    12  O     c     0.101256    0.500000    0.358579    0.000000
--------------------------------------------------------------------------------

  Final Cartesian lattice vectors (Angstroms) :

        4.933438   -0.000000    0.286621
       -0.000000    4.856261    0.000000
       -0.270747    0.000000    4.659843


  Final cell parameters and derivatives :

--------------------------------------------------------------------------------
       a            4.941757 Angstrom     dE/de1(xx)    -0.005222 eV/strain
       b            4.856261 Angstrom     dE/de2(yy)    -0.001015 eV/strain
       c            4.667702 Angstrom     dE/de3(zz)     0.001307 eV/strain
       alpha       90.000000 Degrees      dE/de4(yz)     0.000000 eV/strain
       beta        90.000259 Degrees      dE/de5(xz)    -0.000336 eV/strain
       gamma       90.000000 Degrees      dE/de6(xy)    -0.000000 eV/strain
--------------------------------------------------------------------------------

  Primitive cell volume =           112.017665 Angs**3

  Density of cell =      4.736609 g/cm**3

  Non-primitive cell volume =           112.017665 Angs**3


  Final internal derivatives :

--------------------------------------------------------------------------------
   No.  Atomic          a             b             c           Radius
        Label          (eV)          (eV)          (eV)        (eV/Angs)
--------------------------------------------------------------------------------
      1 Ti    c       0.000000      0.000000      0.000000      0.000000
      2 Ti    c       0.001781      0.000000      0.000497      0.000000
      3 Ti    c       0.002683     -0.000000      0.007620      0.000000
      4 Ti    c      -0.002337      0.000000     -0.006158      0.000000
      5 O     c      -0.001739      0.000000     -0.003741      0.000000
      6 O     c      -0.001022     -0.000000      0.000372      0.000000
      7 O     c       0.001171     -0.000000     -0.001959      0.000000
      8 O     c      -0.000525     -0.001447      0.001089      0.000000
      9 O     c      -0.000525      0.001447      0.001089      0.000000
     10 O     c      -0.000598     -0.001928      0.002042      0.000000
     11 O     c      -0.000598      0.001928      0.002042      0.000000
     12 O     c      -0.000423      0.000000      0.000286      0.000000
--------------------------------------------------------------------------------
  Maximum abs         0.002683      0.001928      0.007620      0.000000
--------------------------------------------------------------------------------


  Time to end of optimisation =       0.9586 seconds


  Peak dynamic memory used =       1.84 MB 


  Timing analysis for GULP :

--------------------------------------------------------------------------------
  Task / Subroutine                                          Time (Seconds)
--------------------------------------------------------------------------------
  Calculation of reciprocal space energy and derivatives          0.0424
  Calculation of real space energy and derivatives                0.9004
  Calculation and manipulation of Hessian matrix                  0.0002
  Calculation of matrix inversion                                 0.0004
  Global summation overhead                                       0.0002
--------------------------------------------------------------------------------
  Total CPU time                                                  0.9587
--------------------------------------------------------------------------------


  Job Finished at 10:53.26 29th May        2024                               

