********************************************************************************
*                       GENERAL UTILITY LATTICE PROGRAM                        *
*                                 Julian Gale                                  *
*                       Curtin Institute for Computation                       *
*                    School of Molecular and Life Sciences                     *
*                    Curtin University, Western Australia                      *
********************************************************************************
* Version = 6.0.0 * Last modified =  12th July 2021                            *
********************************************************************************
*  optimise     - perform optimisation run                                     *
*  conp         - constant pressure calculation                                *
*  conjugate    - use conjugate gradients minimiser                            *
********************************************************************************

  Job Started  at 10:53.47 29th May        2024                               

  Number of CPUs =     1


  Total number of configurations input =      1

********************************************************************************
*  Input for Configuration =   1                                               *
********************************************************************************

  Formula = Ti4O8                                                       

  Number of irreducible atoms/shells =      12


  Total number atoms/shells =      12

  Dimensionality = 3               :  Bulk   



  Cartesian lattice vectors (Angstroms) :

        4.044379    0.000000    0.000000
        0.000000    4.434430    0.000000
        0.000000    0.000000    7.952382

  Cell parameters (Angstroms/Degrees):

  a =       4.0444    alpha =  90.0000
  b =       4.4344    beta  =  90.0000
  c =       7.9524    gamma =  90.0000

  Initial cell volume =         142.622119 Angs**3

  Temperature of configuration =   0.00     K 

  Pressure of configuration =         0.000 GPa 

  Fractional coordinates of asymmetric unit :

--------------------------------------------------------------------------------
   No.  Atomic       x           y          z         Charge      Occupancy
        Label      (Frac)      (Frac)     (Frac)        (e)         (Frac)  
--------------------------------------------------------------------------------
      1 Ti    c    0.929052    0.044996    0.897339     2.19600    1.000000    
      2 Ti    c    0.070948 *  0.955004 *  0.397339 *   2.19600    1.000000    
      3 Ti    c    0.070948 *  0.044996 *  0.602661 *   2.19600    1.000000    
      4 Ti    c    0.929052 *  0.955004 *  0.102661 *   2.19600    1.000000    
      5 O     c    0.589531 *  0.442422 *  0.650765 *  -1.09800    1.000000    
      6 O     c    0.410469 *  0.557578 *  0.150765 *  -1.09800    1.000000    
      7 O     c    0.410469 *  0.442422 *  0.849235 *  -1.09800    1.000000    
      8 O     c    0.589531 *  0.557578 *  0.349235 *  -1.09800    1.000000    
      9 O     c    0.363699 *  0.923786 *  0.433957 *  -1.09800    1.000000    
     10 O     c    0.636301 *  0.076214 *  0.933957 *  -1.09800    1.000000    
     11 O     c    0.636301 *  0.923786 *  0.066043 *  -1.09800    1.000000    
     12 O     c    0.363699 *  0.076214 *  0.566043 *  -1.09800    1.000000    
--------------------------------------------------------------------------------



********************************************************************************
*  General input information                                                   *
********************************************************************************

  Species output for all configurations : 

--------------------------------------------------------------------------------
  Species    Type    Atomic    Atomic    Charge       Radii (Angs)     Library
                     Number     Mass       (e)     Cova   Ionic  VDW   Symbol
--------------------------------------------------------------------------------
    Ti       Core       22      47.88   2.196000   1.470  0.000  2.190          
    O        Core        8      16.00  -1.098000   0.730  0.000  1.360          
--------------------------------------------------------------------------------


  Lattice summation method               =    Ewald          (3-D)
                                         =    Parry          (2-D)
                                         =    Saunders et al (1-D)
  Accuracy factor for lattice sums       =   12.000


  Analytic derivatives to be used

  Time limit = Infinity

  Maximum range for interatomic potentials =    100000.000000 Angstroms

  General interatomic potentials :

--------------------------------------------------------------------------------
Atom  Types   Potential      Parameter       Value         Units   Cutoffs(Ang)
  1     2                                                            Min /  Max 
--------------------------------------------------------------------------------
Ti   c Ti   c Buckingham    Buckingham A     31120.100    eV        0.000 15.000
                            Buckingham rho  0.15400000    Ang       
                            Buckingham C     5.2500000    eV*Ang^6  
--------------------------------------------------------------------------------
O    c O    c Buckingham    Buckingham A     11782.700    eV        0.000 15.000
                            Buckingham rho  0.23400000    Ang       
                            Buckingham C     30.220000    eV*Ang^6  
--------------------------------------------------------------------------------
O    c Ti   c Buckingham    Buckingham A     16957.500    eV        0.000 15.000
                            Buckingham rho  0.19400000    Ang       
                            Buckingham C     12.590000    eV*Ang^6  
--------------------------------------------------------------------------------
Ti   c Ti   c Lennard       Lennard-Jones A  1.0000000    eV*Ang^m  0.000 15.000
                            Lennard-Jones B  0.0000000    eV*Ang^n  
                            Exponent m        12          None
                            Exponent n         6          None
--------------------------------------------------------------------------------
O    c O    c Lennard       Lennard-Jones A  1.0000000    eV*Ang^m  0.000 15.000
                            Lennard-Jones B  0.0000000    eV*Ang^n  
                            Exponent m        12          None
                            Exponent n         6          None
--------------------------------------------------------------------------------
O    c Ti   c Lennard       Lennard-Jones A  1.0000000    eV*Ang^m  0.000 15.000
                            Lennard-Jones B  0.0000000    eV*Ang^n  
                            Exponent m        12          None
                            Exponent n         6          None
--------------------------------------------------------------------------------

********************************************************************************
*  Output for configuration   1                                                *
********************************************************************************


  Components of energy : 

--------------------------------------------------------------------------------
  Interatomic potentials     =         227.11326980 eV    
  Monopole - monopole (real) =         -30.24793791 eV    
  Monopole - monopole (recip)=         -91.88586804 eV    
  Monopole - monopole (total)=        -122.13380595 eV    
--------------------------------------------------------------------------------
  Total lattice energy       =         104.97946385 eV    
--------------------------------------------------------------------------------
  Total lattice energy       =           10128.9135 kJ/(mole unit cells)
--------------------------------------------------------------------------------


  Number of variables =       39

  Maximum number of calculations  =          1000
  Maximum Hessian update interval =            10
  Maximum step size               =   1.000000000
  Maximum parameter tolerance     =   0.000010000
  Maximum function  tolerance     =   0.000010000
  Maximum gradient  tolerance     =   0.001000000
  Maximum gradient  component     =   0.010000000

  Symmetry not applied to optimisation

  Cell parameters to be optimised using strains

  Conjugate gradient optimiser to be used

  Lower half triangular hessian to be used

  Minimiser to switch to BFGS with exact hessian
  When gradient norm is less than     0.500000

  Start of bulk optimisation :

  Cycle:      0 Energy:       104.979464  Gnorm:     77.200398  CPU:    0.020
  Cycle:      1 Energy:       -40.907929  Gnorm:     13.399279  CPU:    0.052
  Cycle:      2 Energy:       -83.121324  Gnorm:      8.685772  CPU:    0.077
  Cycle:      3 Energy:      -103.400629  Gnorm:      4.625186  CPU:    0.100
  Cycle:      4 Energy:      -124.644581  Gnorm:      4.591336  CPU:    0.123
  Cycle:      5 Energy:      -133.638286  Gnorm:      3.427927  CPU:    0.144
  Cycle:      6 Energy:      -142.300073  Gnorm:      2.960024  CPU:    0.170
  Cycle:      7 Energy:      -145.604889  Gnorm:      3.088939  CPU:    0.190
  Cycle:      8 Energy:      -147.529121  Gnorm:      2.278391  CPU:    0.210
  Cycle:      9 Energy:      -149.458264  Gnorm:      2.735863  CPU:    0.236
  Cycle:     10 Energy:      -150.287012  Gnorm:      1.439460  CPU:    0.263
  Cycle:     11 Energy:      -151.885403  Gnorm:      2.069528  CPU:    0.289
  Cycle:     12 Energy:      -152.433724  Gnorm:      1.237779  CPU:    0.316
  Cycle:     13 Energy:      -152.806994  Gnorm:      0.861395  CPU:    0.344
  Cycle:     14 Energy:      -152.961599  Gnorm:      0.612071  CPU:    0.366
  Cycle:     15 Energy:      -153.185222  Gnorm:      0.693940  CPU:    0.393
  Cycle:     16 Energy:      -153.375834  Gnorm:      0.642663  CPU:    0.416
  Cycle:     17 Energy:      -153.479870  Gnorm:      0.568707  CPU:    0.439
  Cycle:     18 Energy:      -153.613233  Gnorm:      0.442046  CPU:    0.466
  ** Hessian calculated **
  Cycle:     19 Energy:      -153.772305  Gnorm:      0.380806  CPU:    0.536
  ** Hessian calculated **
  Cycle:     20 Energy:      -153.873305  Gnorm:      0.093065  CPU:    0.600
  ** Hessian calculated **
  Cycle:     21 Energy:      -153.881026  Gnorm:      0.093297  CPU:    0.664
  Cycle:     22 Energy:      -153.894777  Gnorm:      0.219089  CPU:    0.692
  Cycle:     23 Energy:      -153.931873  Gnorm:      0.306319  CPU:    0.723
  Cycle:     24 Energy:      -153.994374  Gnorm:      0.415018  CPU:    0.757
  Cycle:     25 Energy:      -154.068579  Gnorm:      0.306880  CPU:    0.784
  Cycle:     26 Energy:      -154.127686  Gnorm:      0.215958  CPU:    0.818
  Cycle:     27 Energy:      -154.180743  Gnorm:      0.192532  CPU:    0.846
  Cycle:     28 Energy:      -154.201619  Gnorm:      0.231131  CPU:    0.874
  Cycle:     29 Energy:      -154.230551  Gnorm:      0.145439  CPU:    0.901
  Cycle:     30 Energy:      -154.262731  Gnorm:      0.260621  CPU:    0.935
  ** Hessian calculated **
  Cycle:     31 Energy:      -154.286037  Gnorm:      0.179931  CPU:    1.004
  Cycle:     32 Energy:      -154.313602  Gnorm:      0.203439  CPU:    1.038
  Cycle:     33 Energy:      -154.340172  Gnorm:      0.170616  CPU:    1.072
  Cycle:     34 Energy:      -154.380874  Gnorm:      0.140749  CPU:    1.107
  Cycle:     35 Energy:      -154.419106  Gnorm:      0.170619  CPU:    1.142
  Cycle:     36 Energy:      -154.440155  Gnorm:      0.095437  CPU:    1.170
  Cycle:     37 Energy:      -154.465304  Gnorm:      0.135797  CPU:    1.205
  Cycle:     38 Energy:      -154.523660  Gnorm:      0.272245  CPU:    1.240
  Cycle:     39 Energy:      -154.559632  Gnorm:      0.110068  CPU:    1.269
  Cycle:     40 Energy:      -154.566329  Gnorm:      0.067443  CPU:    1.304
  ** Hessian calculated **
  Cycle:     41 Energy:      -154.577201  Gnorm:      0.011295  CPU:    1.388
  Cycle:     42 Energy:      -154.577354  Gnorm:      0.003134  CPU:    1.416


  **** Optimisation achieved ****


  Final energy =    -154.57736051 eV      
  Final Gnorm  =       0.00023385

  Components of energy : 

--------------------------------------------------------------------------------
  Interatomic potentials     =          12.17183513 eV    
  Monopole - monopole (real) =         -64.34194507 eV    
  Monopole - monopole (recip)=        -102.40725056 eV    
  Monopole - monopole (total)=        -166.74919563 eV    
--------------------------------------------------------------------------------
  Total lattice energy       =        -154.57736051 eV    
--------------------------------------------------------------------------------
  Total lattice energy       =          -14914.3524 kJ/(mole unit cells)
--------------------------------------------------------------------------------

  Final fractional coordinates of atoms :

--------------------------------------------------------------------------------
   No.  Atomic        x           y          z          Radius
        Label       (Frac)      (Frac)     (Frac)       (Angs) 
--------------------------------------------------------------------------------
     1  Ti    c     0.929052    0.044996    0.897339    0.000000
     2  Ti    c     0.429072    0.045002    0.397339    0.000000
     3  Ti    c     0.679106    0.045001    0.647340    0.000000
     4  Ti    c     0.179109    0.044999    0.147341    0.000000
     5  O     c     0.679088    0.545001    0.647342    0.000000
     6  O     c     0.179094    0.545000    0.147342    0.000000
     7  O     c     0.929126    0.544996    0.897341    0.000000
     8  O     c     0.429086    0.545001    0.397340    0.000000
     9  O     c     0.804084    0.045001    0.272341    0.000000
    10  O     c     0.304091    0.044999    0.772339    0.000000
    11  O     c     0.554122    0.044997    0.022342    0.000000
    12  O     c     0.054077    0.045001    0.522338    0.000000
--------------------------------------------------------------------------------

  Final Cartesian lattice vectors (Angstroms) :

        2.857713   -0.000219   -0.344908
        0.000279    3.672652   -0.000006
       -1.477963    0.000118   11.775781


  Final cell parameters and derivatives :

--------------------------------------------------------------------------------
       a            2.878452 Angstrom     dE/de1(xx)     0.001820 eV/strain
       b            3.672652 Angstrom     dE/de2(yy)    -0.000127 eV/strain
       c           11.868167 Angstrom     dE/de3(zz)     0.002081 eV/strain
       alpha       90.000070 Degrees      dE/de4(yz)    -0.000045 eV/strain
       beta       104.035658 Degrees      dE/de5(xz)     0.000832 eV/strain
       gamma       90.000020 Degrees      dE/de6(xy)    -0.000018 eV/strain
--------------------------------------------------------------------------------

  Primitive cell volume =           121.719177 Angs**3

  Density of cell =      4.359082 g/cm**3

  Non-primitive cell volume =           121.719177 Angs**3


  Final internal derivatives :

--------------------------------------------------------------------------------
   No.  Atomic          a             b             c           Radius
        Label          (eV)          (eV)          (eV)        (eV/Angs)
--------------------------------------------------------------------------------
      1 Ti    c       0.000000      0.000000      0.000000      0.000000
      2 Ti    c      -0.000214      0.000391     -0.000063      0.000000
      3 Ti    c       0.000757     -0.000329      0.004087      0.000000
      4 Ti    c      -0.000069     -0.000177      0.001985      0.000000
      5 O     c       0.000245      0.000395      0.001576      0.000000
      6 O     c      -0.000100      0.000214      0.000374      0.000000
      7 O     c       0.000030     -0.000102      0.001076      0.000000
      8 O     c       0.000015     -0.000388     -0.000776      0.000000
      9 O     c      -0.000569      0.000055      0.001638      0.000000
     10 O     c       0.000414      0.000044     -0.002673      0.000000
     11 O     c       0.002749     -0.000071      0.001112      0.000000
     12 O     c      -0.000799     -0.000019     -0.005355      0.000000
--------------------------------------------------------------------------------
  Maximum abs         0.002749      0.000395      0.005355      0.000000
--------------------------------------------------------------------------------


  Time to end of optimisation =       1.4454 seconds


  Peak dynamic memory used =       1.84 MB 


  Timing analysis for GULP :

--------------------------------------------------------------------------------
  Task / Subroutine                                          Time (Seconds)
--------------------------------------------------------------------------------
  Calculation of reciprocal space energy and derivatives          0.0696
  Calculation of real space energy and derivatives                1.3568
  Calculation and manipulation of Hessian matrix                  0.0005
  Calculation of matrix inversion                                 0.0010
  Global summation overhead                                       0.0003
--------------------------------------------------------------------------------
  Total CPU time                                                  1.4455
--------------------------------------------------------------------------------


  Job Finished at 10:53.48 29th May        2024                               

