********************************************************************************
*                       GENERAL UTILITY LATTICE PROGRAM                        *
*                                 Julian Gale                                  *
*                       Curtin Institute for Computation                       *
*                    School of Molecular and Life Sciences                     *
*                    Curtin University, Western Australia                      *
********************************************************************************
* Version = 6.0.0 * Last modified =  12th July 2021                            *
********************************************************************************
*  optimise     - perform optimisation run                                     *
*  conp         - constant pressure calculation                                *
*  conjugate    - use conjugate gradients minimiser                            *
********************************************************************************

  Job Started  at 10:54.13 29th May        2024                               

  Number of CPUs =     1


  Total number of configurations input =      1

********************************************************************************
*  Input for Configuration =   1                                               *
********************************************************************************

  Formula = Ti4O8                                                       

  Number of irreducible atoms/shells =      12


  Total number atoms/shells =      12

  Dimensionality = 3               :  Bulk   



  Cartesian lattice vectors (Angstroms) :

        7.645626    0.000000    0.000000
        0.000000    2.658660    0.000000
        0.000000    0.000000    4.130200

  Cell parameters (Angstroms/Degrees):

  a =       7.6456    alpha =  90.0000
  b =       2.6587    beta  =  90.0000
  c =       4.1302    gamma =  90.0000

  Initial cell volume =          83.955055 Angs**3

  Temperature of configuration =   0.00     K 

  Pressure of configuration =         0.000 GPa 

  Fractional coordinates of asymmetric unit :

--------------------------------------------------------------------------------
   No.  Atomic       x           y          z         Charge      Occupancy
        Label      (Frac)      (Frac)     (Frac)        (e)         (Frac)  
--------------------------------------------------------------------------------
      1 Ti    c    0.000000    0.969650    0.696271     2.19600    1.000000    
      2 Ti    c    0.500000 *  0.030350 *  0.196271 *   2.19600    1.000000    
      3 Ti    c    0.000000 *  0.264499 *  0.086526 *   2.19600    1.000000    
      4 Ti    c    0.500000 *  0.735501 *  0.586526 *   2.19600    1.000000    
      5 O     c    0.248430 *  0.001704 *  0.816890 *  -1.09800    1.000000    
      6 O     c    0.251570 *  0.998296 *  0.316890 *  -1.09800    1.000000    
      7 O     c    0.748430 *  0.998296 *  0.316890 *  -1.09800    1.000000    
      8 O     c    0.751570 *  0.001704 *  0.816890 *  -1.09800    1.000000    
      9 O     c    0.000000 *  0.602131 *  0.269872 *  -1.09800    1.000000    
     10 O     c    0.500000 *  0.397869 *  0.769872 *  -1.09800    1.000000    
     11 O     c    0.000000 *  0.479063 *  0.768479 *  -1.09800    1.000000    
     12 O     c    0.500000 *  0.520937 *  0.268479 *  -1.09800    1.000000    
--------------------------------------------------------------------------------



********************************************************************************
*  General input information                                                   *
********************************************************************************

  Species output for all configurations : 

--------------------------------------------------------------------------------
  Species    Type    Atomic    Atomic    Charge       Radii (Angs)     Library
                     Number     Mass       (e)     Cova   Ionic  VDW   Symbol
--------------------------------------------------------------------------------
    Ti       Core       22      47.88   2.196000   1.470  0.000  2.190          
    O        Core        8      16.00  -1.098000   0.730  0.000  1.360          
--------------------------------------------------------------------------------


  Lattice summation method               =    Ewald          (3-D)
                                         =    Parry          (2-D)
                                         =    Saunders et al (1-D)
  Accuracy factor for lattice sums       =   12.000


  Analytic derivatives to be used

  Time limit = Infinity

  Maximum range for interatomic potentials =    100000.000000 Angstroms

  General interatomic potentials :

--------------------------------------------------------------------------------
Atom  Types   Potential      Parameter       Value         Units   Cutoffs(Ang)
  1     2                                                            Min /  Max 
--------------------------------------------------------------------------------
Ti   c Ti   c Buckingham    Buckingham A     31120.100    eV        0.000 15.000
                            Buckingham rho  0.15400000    Ang       
                            Buckingham C     5.2500000    eV*Ang^6  
--------------------------------------------------------------------------------
O    c O    c Buckingham    Buckingham A     11782.700    eV        0.000 15.000
                            Buckingham rho  0.23400000    Ang       
                            Buckingham C     30.220000    eV*Ang^6  
--------------------------------------------------------------------------------
O    c Ti   c Buckingham    Buckingham A     16957.500    eV        0.000 15.000
                            Buckingham rho  0.19400000    Ang       
                            Buckingham C     12.590000    eV*Ang^6  
--------------------------------------------------------------------------------
Ti   c Ti   c Lennard       Lennard-Jones A  1.0000000    eV*Ang^m  0.000 15.000
                            Lennard-Jones B  0.0000000    eV*Ang^n  
                            Exponent m        12          None
                            Exponent n         6          None
--------------------------------------------------------------------------------
O    c O    c Lennard       Lennard-Jones A  1.0000000    eV*Ang^m  0.000 15.000
                            Lennard-Jones B  0.0000000    eV*Ang^n  
                            Exponent m        12          None
                            Exponent n         6          None
--------------------------------------------------------------------------------
O    c Ti   c Lennard       Lennard-Jones A  1.0000000    eV*Ang^m  0.000 15.000
                            Lennard-Jones B  0.0000000    eV*Ang^n  
                            Exponent m        12          None
                            Exponent n         6          None
--------------------------------------------------------------------------------

********************************************************************************
*  Output for configuration   1                                                *
********************************************************************************


  Components of energy : 

--------------------------------------------------------------------------------
  Interatomic potentials     =         160.48285772 eV    
  Monopole - monopole (real) =         -69.63697737 eV    
  Monopole - monopole (recip)=        -112.31709844 eV    
  Monopole - monopole (total)=        -181.95407582 eV    
--------------------------------------------------------------------------------
  Total lattice energy       =         -21.47121810 eV    
--------------------------------------------------------------------------------
  Total lattice energy       =           -2071.6443 kJ/(mole unit cells)
--------------------------------------------------------------------------------


  Number of variables =       39

  Maximum number of calculations  =          1000
  Maximum Hessian update interval =            10
  Maximum step size               =   1.000000000
  Maximum parameter tolerance     =   0.000010000
  Maximum function  tolerance     =   0.000010000
  Maximum gradient  tolerance     =   0.001000000
  Maximum gradient  component     =   0.010000000

  Symmetry not applied to optimisation

  Cell parameters to be optimised using strains

  Conjugate gradient optimiser to be used

  Lower half triangular hessian to be used

  Minimiser to switch to BFGS with exact hessian
  When gradient norm is less than     0.500000

  Start of bulk optimisation :

  Cycle:      0 Energy:       -21.471218  Gnorm:     31.496618  CPU:    0.025
  Cycle:      1 Energy:      -107.220741  Gnorm:      9.821694  CPU:    0.067
  Cycle:      2 Energy:      -143.947880  Gnorm:      1.643820  CPU:    0.100
  Cycle:      3 Energy:      -146.274472  Gnorm:      1.046250  CPU:    0.125
  Cycle:      4 Energy:      -147.802426  Gnorm:      0.926363  CPU:    0.149
  Cycle:      5 Energy:      -149.676130  Gnorm:      0.933013  CPU:    0.174
  Cycle:      6 Energy:      -150.473784  Gnorm:      0.843693  CPU:    0.197
  Cycle:      7 Energy:      -151.545643  Gnorm:      0.708941  CPU:    0.224
  Cycle:      8 Energy:      -152.018590  Gnorm:      0.342437  CPU:    0.246
  ** Hessian calculated **
  Cycle:      9 Energy:      -152.124324  Gnorm:      0.303788  CPU:    0.322
  ** Hessian calculated **
  Cycle:     10 Energy:      -152.238893  Gnorm:      0.148201  CPU:    0.385
  Cycle:     11 Energy:      -152.297214  Gnorm:      0.135709  CPU:    0.417
  Cycle:     12 Energy:      -152.353857  Gnorm:      0.126323  CPU:    0.446
  Cycle:     13 Energy:      -152.390337  Gnorm:      0.148812  CPU:    0.474
  Cycle:     14 Energy:      -152.480485  Gnorm:      0.198810  CPU:    0.503
  Cycle:     15 Energy:      -152.653547  Gnorm:      0.315117  CPU:    0.530
  Cycle:     16 Energy:      -152.892545  Gnorm:      0.281411  CPU:    0.552
  Cycle:     17 Energy:      -153.071719  Gnorm:      0.258438  CPU:    0.573
  Cycle:     18 Energy:      -153.164958  Gnorm:      0.208977  CPU:    0.595
  Cycle:     19 Energy:      -153.298556  Gnorm:      0.167710  CPU:    0.621
  ** Hessian calculated **
  Cycle:     20 Energy:      -153.355599  Gnorm:      0.110945  CPU:    0.680
  Cycle:     21 Energy:      -153.426742  Gnorm:      0.095296  CPU:    0.706
  Cycle:     22 Energy:      -153.444028  Gnorm:      0.074098  CPU:    0.728
  Cycle:     23 Energy:      -153.468398  Gnorm:      0.106183  CPU:    0.754
  Cycle:     24 Energy:      -153.546668  Gnorm:      0.168690  CPU:    0.785
  Cycle:     25 Energy:      -153.624922  Gnorm:      0.257650  CPU:    0.810
  Cycle:     26 Energy:      -153.763234  Gnorm:      0.173689  CPU:    0.830
  Cycle:     27 Energy:      -153.862331  Gnorm:      0.147037  CPU:    0.850
  Cycle:     28 Energy:      -153.930932  Gnorm:      0.110654  CPU:    0.875
  Cycle:     29 Energy:      -153.957166  Gnorm:      0.084052  CPU:    0.899
  ** Hessian calculated **
  Cycle:     30 Energy:      -154.068538  Gnorm:      0.067482  CPU:    0.969
  Cycle:     31 Energy:      -154.113581  Gnorm:      0.190203  CPU:    0.994
  Cycle:     32 Energy:      -154.146895  Gnorm:      0.043599  CPU:    1.019
  Cycle:     33 Energy:      -154.153246  Gnorm:      0.021258  CPU:    1.044
  Cycle:     34 Energy:      -154.154256  Gnorm:      0.016216  CPU:    1.069
  Cycle:     35 Energy:      -154.154753  Gnorm:      0.012872  CPU:    1.095
  Cycle:     36 Energy:      -154.155101  Gnorm:      0.009020  CPU:    1.116
  Cycle:     37 Energy:      -154.155285  Gnorm:      0.005798  CPU:    1.141
  Cycle:     38 Energy:      -154.155356  Gnorm:      0.004238  CPU:    1.161
  Cycle:     39 Energy:      -154.155399  Gnorm:      0.001312  CPU:    1.182
  ** Hessian calculated **


  **** Optimisation achieved ****


  Final energy =    -154.15540512 eV      
  Final Gnorm  =       0.00000674

  Components of energy : 

--------------------------------------------------------------------------------
  Interatomic potentials     =          12.66731764 eV    
  Monopole - monopole (real) =         -66.06339321 eV    
  Monopole - monopole (recip)=        -100.75932955 eV    
  Monopole - monopole (total)=        -166.82272276 eV    
--------------------------------------------------------------------------------
  Total lattice energy       =        -154.15540512 eV    
--------------------------------------------------------------------------------
  Total lattice energy       =          -14873.6401 kJ/(mole unit cells)
--------------------------------------------------------------------------------

  Final fractional coordinates of atoms :

--------------------------------------------------------------------------------
   No.  Atomic        x           y          z          Radius
        Label       (Frac)      (Frac)     (Frac)       (Angs) 
--------------------------------------------------------------------------------
     1  Ti    c     0.000000    0.969650    0.696271    0.000000
     2  Ti    c     0.500000    0.469650    0.196269    0.000000
     3  Ti    c     0.000000    0.469650    0.196271    0.000000
     4  Ti    c     0.500000    0.969650    0.696269    0.000000
     5  O     c     0.250000    0.969650    0.812218    0.000000
     6  O     c     0.250000    0.469650    0.312218    0.000000
     7  O     c     0.750000    0.469650    0.312218    0.000000
     8  O     c     0.750000    0.969650    0.812218    0.000000
     9  O     c     0.000000    0.969650    0.293005    0.000000
    10  O     c     0.500000    0.469650    0.793003    0.000000
    11  O     c     0.000000    0.469650    0.793005    0.000000
    12  O     c     0.500000    0.969650    0.293003    0.000000
--------------------------------------------------------------------------------

  Final Cartesian lattice vectors (Angstroms) :

        7.095383    0.000001   -0.000008
       -0.000000    3.835749   -0.000024
        0.000002    0.000029    4.742187


  Final cell parameters and derivatives :

--------------------------------------------------------------------------------
       a            7.095383 Angstrom     dE/de1(xx)     0.000107 eV/strain
       b            3.835749 Angstrom     dE/de2(yy)     0.000027 eV/strain
       c            4.742187 Angstrom     dE/de3(zz)    -0.000014 eV/strain
       alpha       90.000000 Degrees      dE/de4(yz)    -0.000003 eV/strain
       beta        90.000045 Degrees      dE/de5(xz)     0.000001 eV/strain
       gamma       90.000000 Degrees      dE/de6(xy)    -0.000002 eV/strain
--------------------------------------------------------------------------------

  Primitive cell volume =           129.063871 Angs**3

  Density of cell =      4.111018 g/cm**3

  Non-primitive cell volume =           129.063871 Angs**3


  Final internal derivatives :

--------------------------------------------------------------------------------
   No.  Atomic          a             b             c           Radius
        Label          (eV)          (eV)          (eV)        (eV/Angs)
--------------------------------------------------------------------------------
      1 Ti    c       0.000000      0.000000      0.000000      0.000000
      2 Ti    c       0.000049      0.000003     -0.000035      0.000000
      3 Ti    c      -0.000023     -0.000020      0.000013      0.000000
      4 Ti    c      -0.000004      0.000002     -0.000060      0.000000
      5 O     c      -0.000117      0.000012      0.000046      0.000000
      6 O     c      -0.000091      0.000001      0.000019      0.000000
      7 O     c       0.000029      0.000002      0.000028      0.000000
      8 O     c       0.000140      0.000012      0.000025      0.000000
      9 O     c       0.000013      0.000017     -0.000014      0.000000
     10 O     c       0.000001     -0.000003      0.000002      0.000000
     11 O     c      -0.000004     -0.000005     -0.000007      0.000000
     12 O     c       0.000001     -0.000023     -0.000018      0.000000
--------------------------------------------------------------------------------
  Maximum abs         0.000140      0.000023      0.000060      0.000000
--------------------------------------------------------------------------------


  Time to end of optimisation =       1.2417 seconds


  Peak dynamic memory used =       1.84 MB 


  Timing analysis for GULP :

--------------------------------------------------------------------------------
  Task / Subroutine                                          Time (Seconds)
--------------------------------------------------------------------------------
  Calculation of reciprocal space energy and derivatives          0.0598
  Calculation of real space energy and derivatives                1.1623
  Calculation and manipulation of Hessian matrix                  0.0006
  Calculation of matrix inversion                                 0.0010
  Global summation overhead                                       0.0003
--------------------------------------------------------------------------------
  Total CPU time                                                  1.2418
--------------------------------------------------------------------------------


  Job Finished at 10:54.14 29th May        2024                               

