********************************************************************************
*                       GENERAL UTILITY LATTICE PROGRAM                        *
*                                 Julian Gale                                  *
*                       Curtin Institute for Computation                       *
*                    School of Molecular and Life Sciences                     *
*                    Curtin University, Western Australia                      *
********************************************************************************
* Version = 6.0.0 * Last modified =  12th July 2021                            *
********************************************************************************
*  optimise     - perform optimisation run                                     *
*  conp         - constant pressure calculation                                *
*  nosymmetry   - turn off symmetry after initial structure generation         *
*  conjugate    - use conjugate gradients minimiser                            *
********************************************************************************

  Job Started  at 16:05.19 11th June       2024                               

  Number of CPUs =     1


  Total number of configurations input =      1

********************************************************************************
*  Input for Configuration =   1                                               *
********************************************************************************

  Formula = Al8Mg4O16                                                   

  Number of irreducible atoms/shells =      28


  Total number atoms/shells =      28

  Dimensionality = 3               :  Bulk   



  Cartesian lattice vectors (Angstroms) :

        6.660524    0.020773   -0.804804
        0.015254    4.645461   -0.003463
       -0.924829   -0.005712    6.839948

  Cell parameters (Angstroms/Degrees):

  a =       6.7090    alpha =  90.1150
  b =       4.6455    beta  = 104.5901
  c =       6.9022    gamma =  89.6307

  Initial cell volume =         208.176407 Angs**3

  Temperature of configuration =   0.00     K 

  Pressure of configuration =       100.000 GPa 

  Fractional coordinates of asymmetric unit :

--------------------------------------------------------------------------------
   No.  Atomic       x           y          z         Charge      Occupancy
        Label      (Frac)      (Frac)     (Frac)        (e)         (Frac)  
--------------------------------------------------------------------------------
      1 Al    c    0.265356    0.667913    0.739316     3.00000    1.000000    
      2 Al    c    0.364702 *  0.171237 *  0.088037 *   3.00000    1.000000    
      3 Al    c    0.054034 *  0.170686 *  0.785786 *   3.00000    1.000000    
      4 Al    c    0.457849 *  0.666536 *  0.435637 *   3.00000    1.000000    
      5 Al    c    0.632890 *  0.243288 *  0.865133 *   3.00000    1.000000    
      6 Al    c    0.544182 *  0.567142 *  0.757242 *   3.00000    1.000000    
      7 Al    c    0.535299 *  0.929717 *  0.277817 *   3.00000    1.000000    
      8 Al    c    0.900472 *  0.362685 *  0.895774 *   3.00000    1.000000    
      9 Mg    c    0.147122 *  0.665664 *  0.126260 *   2.00000    1.000000    
     10 Mg    c    0.201812 *  0.163623 *  0.423618 *   2.00000    1.000000    
     11 Mg    c    0.539742 *  0.748429 *  0.517530 *   2.00000    1.000000    
     12 Mg    c    0.939518 *  0.054159 *  0.376222 *   2.00000    1.000000    
     13 O     c    0.462289 *  0.485250 *  0.675350 *  -2.00000    1.000000    
     14 O     c    0.364557 *  0.362990 *  0.294502 *  -2.00000    1.000000    
     15 O     c    0.453407 *  0.847824 *  0.195924 *  -2.00000    1.000000    
     16 O     c    0.215775 *  0.466252 *  0.920872 *  -2.00000    1.000000    
     17 O     c    0.058069 *  0.360361 *  0.576943 *  -2.00000    1.000000    
     18 O     c    0.097118 *  0.051837 *  0.057391 *  -2.00000    1.000000    
     19 O     c    0.208908 *  0.766209 *  0.444912 *  -2.00000    1.000000    
     20 O     c    0.325551 *  0.008729 *  0.824642 *  -2.00000    1.000000    
     21 O     c    0.672039 *  0.405799 *  0.128524 *  -2.00000    1.000000    
     22 O     c    0.781814 *  0.948717 *  0.032294 *  -2.00000    1.000000    
     23 O     c    0.732235 *  0.747056 *  0.213853 *  -2.00000    1.000000    
     24 O     c    0.633031 *  0.051537 *  0.658664 *  -2.00000    1.000000    
     25 O     c    0.943557 *  0.243839 *  0.167383 *  -2.00000    1.000000    
     26 O     c    0.795797 *  0.250899 *  0.529565 *  -2.00000    1.000000    
     27 O     c    0.850470 *  0.749303 *  0.826909 *  -2.00000    1.000000    
     28 O     c    0.788682 *  0.648757 *  0.508257 *  -2.00000    1.000000    
--------------------------------------------------------------------------------



********************************************************************************
*  General input information                                                   *
********************************************************************************

  Species output for all configurations : 

--------------------------------------------------------------------------------
  Species    Type    Atomic    Atomic    Charge       Radii (Angs)     Library
                     Number     Mass       (e)     Cova   Ionic  VDW   Symbol
--------------------------------------------------------------------------------
    Mg       Core       12      24.31   2.000000   1.100  0.000  1.640          
    Al       Core       13      26.98   3.000000   1.350  0.000  2.050          
    O        Core        8      16.00  -2.000000   0.730  0.000  1.360          
--------------------------------------------------------------------------------


  Lattice summation method               =    Ewald          (3-D)
                                         =    Parry          (2-D)
                                         =    Saunders et al (1-D)
  Accuracy factor for lattice sums       =   12.000


  Analytic derivatives to be used

  Time limit = Infinity

  Maximum range for interatomic potentials =    100000.000000 Angstroms

  General interatomic potentials :

--------------------------------------------------------------------------------
Atom  Types   Potential      Parameter       Value         Units   Cutoffs(Ang)
  1     2                                                            Min /  Max 
--------------------------------------------------------------------------------
O    c Mg   c Lennard       Lennard-Jones A  1.5000000    eV*Ang^m  0.000  6.000
                            Lennard-Jones B  0.0000000    eV*Ang^n  
                            Exponent m        12          None
                            Exponent n         6          None
--------------------------------------------------------------------------------
O    c Al   c Lennard       Lennard-Jones A  1.5000000    eV*Ang^m  0.000  6.000
                            Lennard-Jones B  0.0000000    eV*Ang^n  
                            Exponent m        12          None
                            Exponent n         6          None
--------------------------------------------------------------------------------
O    c O    c Lennard       Lennard-Jones A  1.5000000    eV*Ang^m  0.000  6.000
                            Lennard-Jones B  0.0000000    eV*Ang^n  
                            Exponent m        12          None
                            Exponent n         6          None
--------------------------------------------------------------------------------
Mg   c Mg   c Lennard       Lennard-Jones A  1.5000000    eV*Ang^m  0.000  6.000
                            Lennard-Jones B  0.0000000    eV*Ang^n  
                            Exponent m        12          None
                            Exponent n         6          None
--------------------------------------------------------------------------------
Mg   c Al   c Lennard       Lennard-Jones A  1.5000000    eV*Ang^m  0.000  6.000
                            Lennard-Jones B  0.0000000    eV*Ang^n  
                            Exponent m        12          None
                            Exponent n         6          None
--------------------------------------------------------------------------------
Al   c Al   c Lennard       Lennard-Jones A  1.5000000    eV*Ang^m  0.000  6.000
                            Lennard-Jones B  0.0000000    eV*Ang^n  
                            Exponent m        12          None
                            Exponent n         6          None
--------------------------------------------------------------------------------
O    c Mg   c Buckingham    Buckingham A     1428.5000    eV        0.000  7.000
                            Buckingham rho  0.29450000    Ang       
                            Buckingham C     0.0000000    eV*Ang^6  
--------------------------------------------------------------------------------
O    c Al   c Buckingham    Buckingham A     1114.9000    eV        0.000  7.000
                            Buckingham rho  0.31180000    Ang       
                            Buckingham C     0.0000000    eV*Ang^6  
--------------------------------------------------------------------------------
O    c O    c Buckingham    Buckingham A     2023.8000    eV        0.000  7.000
                            Buckingham rho  0.26740000    Ang       
                            Buckingham C     0.0000000    eV*Ang^6  
--------------------------------------------------------------------------------

********************************************************************************
*  Output for configuration   1                                                *
********************************************************************************


  Components of enthalpy : 

--------------------------------------------------------------------------------
  Interatomic potentials     =         450.07222717 eV    
  Monopole - monopole (real) =        -302.38926882 eV    
  Monopole - monopole (recip)=        -456.53127285 eV    
  Monopole - monopole (total)=        -758.92054166 eV    
  Pressure*volume            =         129.93249044 eV    
--------------------------------------------------------------------------------
  Total lattice enthalpy     =        -178.91582405 eV    
--------------------------------------------------------------------------------
  Total lattice enthalpy     =          -17262.6420 kJ/(mole unit cells)
--------------------------------------------------------------------------------


  Number of variables =       87

  Maximum number of calculations  =           850
  Maximum Hessian update interval =            10
  Maximum step size               =   1.000000000
  Maximum parameter tolerance     =   0.000010000
  Maximum function  tolerance     =   0.000010000
  Maximum gradient  tolerance     =   0.001000000
  Maximum gradient  component     =   0.010000000

  Cell parameters to be optimised using strains

  Conjugate gradient optimiser to be used

  Lower half triangular hessian to be used

  Minimiser to switch to RFO
  When gradient norm is less than     0.010000

  Start of bulk optimisation :

  Cycle:      0 Energy:      -178.915824  Gnorm:     96.808968  CPU:    0.038
  Cycle:      1 Energy:      -439.129415  Gnorm:      9.190132  CPU:    0.154
  Cycle:      2 Energy:      -513.527286  Gnorm:      6.058120  CPU:    0.216
  Cycle:      3 Energy:      -536.864319  Gnorm:      3.432170  CPU:    0.267
  Cycle:      4 Energy:      -564.993596  Gnorm:      4.086749  CPU:    0.345
  Cycle:      5 Energy:      -585.878777  Gnorm:      3.140278  CPU:    0.408
  Cycle:      6 Energy:      -600.609788  Gnorm:      2.221596  CPU:    0.475
  Cycle:      7 Energy:      -610.137411  Gnorm:      1.869660  CPU:    0.556
  Cycle:      8 Energy:      -615.076818  Gnorm:      1.528097  CPU:    0.652
  Cycle:      9 Energy:      -619.764393  Gnorm:      1.520252  CPU:    0.749
  Cycle:     10 Energy:      -621.841866  Gnorm:      0.992418  CPU:    0.808
  Cycle:     11 Energy:      -623.428976  Gnorm:      0.889425  CPU:    0.873
  Cycle:     12 Energy:      -625.942845  Gnorm:      0.948977  CPU:    0.940
  Cycle:     13 Energy:      -627.739351  Gnorm:      0.995438  CPU:    0.992
  Cycle:     14 Energy:      -629.697949  Gnorm:      0.816361  CPU:    1.059
  Cycle:     15 Energy:      -631.271622  Gnorm:      0.795021  CPU:    1.122
  Cycle:     16 Energy:      -632.618583  Gnorm:      0.903369  CPU:    1.177
  Cycle:     17 Energy:      -633.790019  Gnorm:      0.647248  CPU:    1.228
  Cycle:     18 Energy:      -635.019198  Gnorm:      0.771528  CPU:    1.295
  Cycle:     19 Energy:      -636.288981  Gnorm:      0.737457  CPU:    1.347
  Cycle:     20 Energy:      -636.861639  Gnorm:      0.546278  CPU:    1.402
  Cycle:     21 Energy:      -637.405165  Gnorm:      0.417417  CPU:    1.467
  Cycle:     22 Energy:      -637.947100  Gnorm:      0.539520  CPU:    1.533
  Cycle:     23 Energy:      -638.438804  Gnorm:      0.500506  CPU:    1.585
  Cycle:     24 Energy:      -639.012843  Gnorm:      0.459584  CPU:    1.651
  Cycle:     25 Energy:      -639.427729  Gnorm:      0.389419  CPU:    1.703
  Cycle:     26 Energy:      -639.709649  Gnorm:      0.310705  CPU:    1.769
  Cycle:     27 Energy:      -640.023448  Gnorm:      0.379071  CPU:    1.834
  Cycle:     28 Energy:      -640.306673  Gnorm:      0.391895  CPU:    1.890
  Cycle:     29 Energy:      -640.630422  Gnorm:      0.325131  CPU:    1.955
  Cycle:     30 Energy:      -640.764896  Gnorm:      0.299711  CPU:    2.014
  Cycle:     31 Energy:      -640.953482  Gnorm:      0.222164  CPU:    2.077
  Cycle:     32 Energy:      -641.077454  Gnorm:      0.201938  CPU:    2.144
  Cycle:     33 Energy:      -641.178032  Gnorm:      0.244169  CPU:    2.208
  Cycle:     34 Energy:      -641.283070  Gnorm:      0.188395  CPU:    2.266
  Cycle:     35 Energy:      -641.388266  Gnorm:      0.199995  CPU:    2.330
  Cycle:     36 Energy:      -641.490055  Gnorm:      0.194137  CPU:    2.387
  Cycle:     37 Energy:      -641.574785  Gnorm:      0.198429  CPU:    2.439
  Cycle:     38 Energy:      -641.662584  Gnorm:      0.193443  CPU:    2.505
  Cycle:     39 Energy:      -641.762338  Gnorm:      0.222144  CPU:    2.567
  Cycle:     40 Energy:      -641.813032  Gnorm:      0.141198  CPU:    2.622
  Cycle:     41 Energy:      -641.854135  Gnorm:      0.124775  CPU:    2.685
  Cycle:     42 Energy:      -641.889354  Gnorm:      0.127640  CPU:    2.751
  Cycle:     43 Energy:      -641.929030  Gnorm:      0.112300  CPU:    2.813
  Cycle:     44 Energy:      -641.966909  Gnorm:      0.112637  CPU:    2.879
  Cycle:     45 Energy:      -642.012120  Gnorm:      0.165184  CPU:    2.942
  Cycle:     46 Energy:      -642.069492  Gnorm:      0.173927  CPU:    2.997
  Cycle:     47 Energy:      -642.147440  Gnorm:      0.195744  CPU:    3.049
  Cycle:     48 Energy:      -642.271495  Gnorm:      0.256274  CPU:    3.117
  Cycle:     49 Energy:      -642.398875  Gnorm:      0.266810  CPU:    3.168
  Cycle:     50 Energy:      -642.509642  Gnorm:      0.256756  CPU:    3.224
  Cycle:     51 Energy:      -642.629411  Gnorm:      0.221571  CPU:    3.286
  Cycle:     52 Energy:      -642.750390  Gnorm:      0.228283  CPU:    3.352
  Cycle:     53 Energy:      -642.917133  Gnorm:      0.217280  CPU:    3.414
  Cycle:     54 Energy:      -643.041926  Gnorm:      0.244721  CPU:    3.469
  Cycle:     55 Energy:      -643.149200  Gnorm:      0.200476  CPU:    3.520
  Cycle:     56 Energy:      -643.301931  Gnorm:      0.290008  CPU:    3.586
  Cycle:     57 Energy:      -643.493003  Gnorm:      0.338813  CPU:    3.637
  Cycle:     58 Energy:      -643.707179  Gnorm:      0.323379  CPU:    3.691
  Cycle:     59 Energy:      -643.889376  Gnorm:      0.269094  CPU:    3.742
  Cycle:     60 Energy:      -643.976446  Gnorm:      0.219447  CPU:    3.797
  Cycle:     61 Energy:      -644.094453  Gnorm:      0.182938  CPU:    3.859
  Cycle:     62 Energy:      -644.184670  Gnorm:      0.159187  CPU:    3.924
  Cycle:     63 Energy:      -644.234735  Gnorm:      0.147304  CPU:    3.975
  Cycle:     64 Energy:      -644.283569  Gnorm:      0.127001  CPU:    4.041
  Cycle:     65 Energy:      -644.326680  Gnorm:      0.124530  CPU:    4.103
  Cycle:     66 Energy:      -644.364706  Gnorm:      0.100740  CPU:    4.168
  Cycle:     67 Energy:      -644.383882  Gnorm:      0.091451  CPU:    4.219
  Cycle:     68 Energy:      -644.400508  Gnorm:      0.084029  CPU:    4.274
  Cycle:     69 Energy:      -644.417095  Gnorm:      0.081028  CPU:    4.336
  Cycle:     70 Energy:      -644.426222  Gnorm:      0.066690  CPU:    4.390
  Cycle:     71 Energy:      -644.436532  Gnorm:      0.065409  CPU:    4.441
  Cycle:     72 Energy:      -644.446120  Gnorm:      0.073189  CPU:    4.496
  Cycle:     73 Energy:      -644.463361  Gnorm:      0.073398  CPU:    4.557
  Cycle:     74 Energy:      -644.481620  Gnorm:      0.078872  CPU:    4.623
  Cycle:     75 Energy:      -644.498372  Gnorm:      0.082044  CPU:    4.674
  Cycle:     76 Energy:      -644.511544  Gnorm:      0.080725  CPU:    4.728
  Cycle:     77 Energy:      -644.527270  Gnorm:      0.076340  CPU:    4.790
  Cycle:     78 Energy:      -644.542630  Gnorm:      0.063178  CPU:    4.856
  Cycle:     79 Energy:      -644.558128  Gnorm:      0.097829  CPU:    4.918
  Cycle:     80 Energy:      -644.566961  Gnorm:      0.057894  CPU:    4.973
  Cycle:     81 Energy:      -644.574839  Gnorm:      0.052117  CPU:    5.034
  Cycle:     82 Energy:      -644.584531  Gnorm:      0.048785  CPU:    5.089
  Cycle:     83 Energy:      -644.590326  Gnorm:      0.050990  CPU:    5.139
  Cycle:     84 Energy:      -644.594982  Gnorm:      0.044626  CPU:    5.194
  Cycle:     85 Energy:      -644.599896  Gnorm:      0.039630  CPU:    5.256
  Cycle:     86 Energy:      -644.604096  Gnorm:      0.038261  CPU:    5.310
  Cycle:     87 Energy:      -644.607737  Gnorm:      0.034456  CPU:    5.372
  Cycle:     88 Energy:      -644.610682  Gnorm:      0.035268  CPU:    5.426
  Cycle:     89 Energy:      -644.614528  Gnorm:      0.043763  CPU:    5.488
  Cycle:     90 Energy:      -644.617271  Gnorm:      0.033669  CPU:    5.543
  Cycle:     91 Energy:      -644.619434  Gnorm:      0.028536  CPU:    5.593
  Cycle:     92 Energy:      -644.621559  Gnorm:      0.032717  CPU:    5.648
  Cycle:     93 Energy:      -644.623759  Gnorm:      0.030924  CPU:    5.698
  Cycle:     94 Energy:      -644.626337  Gnorm:      0.029967  CPU:    5.753
  Cycle:     95 Energy:      -644.628974  Gnorm:      0.032222  CPU:    5.803
  Cycle:     96 Energy:      -644.631680  Gnorm:      0.032041  CPU:    5.858
  Cycle:     97 Energy:      -644.634779  Gnorm:      0.035587  CPU:    5.908
  Cycle:     98 Energy:      -644.637365  Gnorm:      0.032475  CPU:    5.963
  Cycle:     99 Energy:      -644.639640  Gnorm:      0.036685  CPU:    6.013
  Cycle:    100 Energy:      -644.641367  Gnorm:      0.028995  CPU:    6.068
  Cycle:    101 Energy:      -644.643538  Gnorm:      0.030171  CPU:    6.118
  Cycle:    102 Energy:      -644.645479  Gnorm:      0.027262  CPU:    6.173
  Cycle:    103 Energy:      -644.647233  Gnorm:      0.023939  CPU:    6.223
  Cycle:    104 Energy:      -644.648583  Gnorm:      0.023726  CPU:    6.278
  Cycle:    105 Energy:      -644.649663  Gnorm:      0.021636  CPU:    6.329
  Cycle:    106 Energy:      -644.650721  Gnorm:      0.021811  CPU:    6.383
  Cycle:    107 Energy:      -644.651799  Gnorm:      0.017977  CPU:    6.434
  Cycle:    108 Energy:      -644.652771  Gnorm:      0.019652  CPU:    6.488
  Cycle:    109 Energy:      -644.653768  Gnorm:      0.025994  CPU:    6.539
  Cycle:    110 Energy:      -644.654637  Gnorm:      0.018241  CPU:    6.590
  Cycle:    111 Energy:      -644.655468  Gnorm:      0.016093  CPU:    6.640
  Cycle:    112 Energy:      -644.656272  Gnorm:      0.018854  CPU:    6.691
  Cycle:    113 Energy:      -644.657051  Gnorm:      0.018141  CPU:    6.742
  Cycle:    114 Energy:      -644.657782  Gnorm:      0.018820  CPU:    6.793
  Cycle:    115 Energy:      -644.658654  Gnorm:      0.018865  CPU:    6.855
  Cycle:    116 Energy:      -644.659683  Gnorm:      0.020126  CPU:    6.916
  Cycle:    117 Energy:      -644.660715  Gnorm:      0.021430  CPU:    6.967
  Cycle:    118 Energy:      -644.661709  Gnorm:      0.019366  CPU:    7.017
  Cycle:    119 Energy:      -644.662443  Gnorm:      0.023586  CPU:    7.068
  Cycle:    120 Energy:      -644.663109  Gnorm:      0.017928  CPU:    7.118
  Cycle:    121 Energy:      -644.663929  Gnorm:      0.019071  CPU:    7.180
  Cycle:    122 Energy:      -644.664708  Gnorm:      0.017109  CPU:    7.231
  Cycle:    123 Energy:      -644.665429  Gnorm:      0.015641  CPU:    7.282
  Cycle:    124 Energy:      -644.666019  Gnorm:      0.014900  CPU:    7.332
  Cycle:    125 Energy:      -644.666443  Gnorm:      0.013885  CPU:    7.383
  Cycle:    126 Energy:      -644.666900  Gnorm:      0.014409  CPU:    7.433
  Cycle:    127 Energy:      -644.667366  Gnorm:      0.011904  CPU:    7.484
  Cycle:    128 Energy:      -644.667818  Gnorm:      0.012952  CPU:    7.534
  Cycle:    129 Energy:      -644.668288  Gnorm:      0.019464  CPU:    7.585
  Cycle:    130 Energy:      -644.668723  Gnorm:      0.012285  CPU:    7.636
  Cycle:    131 Energy:      -644.669123  Gnorm:      0.011061  CPU:    7.686
  Cycle:    132 Energy:      -644.669512  Gnorm:      0.013172  CPU:    7.737
  Cycle:    133 Energy:      -644.669884  Gnorm:      0.012480  CPU:    7.787
  Cycle:    134 Energy:      -644.670216  Gnorm:      0.012916  CPU:    7.838
  Cycle:    135 Energy:      -644.670667  Gnorm:      0.013484  CPU:    7.888
  Cycle:    136 Energy:      -644.671189  Gnorm:      0.014195  CPU:    7.950
  Cycle:    137 Energy:      -644.671729  Gnorm:      0.015461  CPU:    8.000
  Cycle:    138 Energy:      -644.672258  Gnorm:      0.014006  CPU:    8.050
  Cycle:    139 Energy:      -644.672675  Gnorm:      0.019174  CPU:    8.100
  Cycle:    140 Energy:      -644.673069  Gnorm:      0.013370  CPU:    8.151
  Cycle:    141 Energy:      -644.673530  Gnorm:      0.014356  CPU:    8.212
  Cycle:    142 Energy:      -644.673993  Gnorm:      0.012975  CPU:    8.263
  Cycle:    143 Energy:      -644.674428  Gnorm:      0.012544  CPU:    8.313
  Cycle:    144 Energy:      -644.674823  Gnorm:      0.011560  CPU:    8.363
  Cycle:    145 Energy:      -644.675075  Gnorm:      0.010965  CPU:    8.413
  Cycle:    146 Energy:      -644.675374  Gnorm:      0.012081  CPU:    8.464
  Cycle:    147 Energy:      -644.675700  Gnorm:      0.009916  CPU:    8.515
  ** Hessian has wrong structure
  ** Imaginary eigenvectors =   1
  Cycle:    148 Energy:      -644.684071  Gnorm:      0.017492  CPU:    8.824
  ** Hessian has required structure
  Cycle:    149 Energy:      -644.691482  Gnorm:      0.015046  CPU:    9.019
  ** Hessian has required structure
  Cycle:    150 Energy:      -644.693702  Gnorm:      0.003164  CPU:    9.089
  ** Hessian has required structure
  Cycle:    151 Energy:      -644.693785  Gnorm:      0.000892  CPU:    9.169
  ** Hessian has required structure
  Cycle:    152 Energy:      -644.693788  Gnorm:      0.000347  CPU:    9.239
  ** Hessian has required structure


  **** Optimisation achieved ****


  Final enthalpy =    -644.69378909 eV      
  Final Gnorm    =       0.00011854

  Components of enthalpy : 

--------------------------------------------------------------------------------
  Interatomic potentials     =         222.73470329 eV    
  Monopole - monopole (real) =        -507.59863421 eV    
  Monopole - monopole (recip)=        -488.72206007 eV    
  Monopole - monopole (total)=        -996.32069428 eV    
  Pressure*volume            =         128.89220190 eV    
--------------------------------------------------------------------------------
  Total lattice enthalpy     =        -644.69378909 eV    
--------------------------------------------------------------------------------
  Total lattice enthalpy     =          -62203.0956 kJ/(mole unit cells)
--------------------------------------------------------------------------------

  Final fractional coordinates of atoms :

--------------------------------------------------------------------------------
   No.  Atomic        x           y          z          Radius
        Label       (Frac)      (Frac)     (Frac)       (Angs) 
--------------------------------------------------------------------------------
     1  Al    c     0.265356    0.667913    0.739316    0.000000
     2  Al    c     0.280695    0.185686    0.987735    0.000000
     3  Al    c     0.943231    0.258720    0.672301    0.000000
     4  Al    c     0.567800    0.723687    0.540744    0.000000
     5  Al    c     0.609600    0.246729    0.830695    0.000000
     6  Al    c     0.632028    0.730824    0.084504    0.000000
     7  Al    c     0.614154    0.210970    0.328185    0.000000
     8  Al    c     0.946568    0.244874    0.176120    0.000000
     9  Mg    c     0.240898    0.680098    0.202653    0.000000
    10  Mg    c     0.287946    0.163526    0.471712    0.000000
    11  Mg    c     0.929168    0.767141    0.895594    0.000000
    12  Mg    c     0.964469    0.737536    0.428939    0.000000
    13  O     c     0.655805    0.671583    0.817992    0.000000
    14  O     c     0.392573    0.348809    0.264507    0.000000
    15  O     c     0.519008    0.821791    0.276957    0.000000
    16  O     c     0.130259    0.480890    0.885400    0.000000
    17  O     c     0.380532    0.350959    0.769597    0.000000
    18  O     c     0.135039    0.043815    0.138025    0.000000
    19  O     c     0.311551    0.759403    0.515167    0.000000
    20  O     c     0.417364    0.914108    0.928912    0.000000
    21  O     c     0.641305    0.364820    0.100649    0.000000
    22  O     c     0.847411    0.167202    0.886183    0.000000
    23  O     c     0.806477    0.008733    0.276481    0.000000
    24  O     c     0.603016    0.106902    0.580876    0.000000
    25  O     c     0.060333    0.346434    0.479945    0.000000
    26  O     c     0.769891    0.512918    0.525790    0.000000
    27  O     c     0.955381    0.595541    0.155085    0.000000
    28  O     c     0.072090    0.936392    0.708910    0.000000
--------------------------------------------------------------------------------

  Final Cartesian lattice vectors (Angstroms) :

        7.179644   -0.089383   -0.844944
       -0.081740    4.667444   -0.170547
       -1.103677   -0.232273    6.303250


  Final cell parameters and derivatives :

--------------------------------------------------------------------------------
       a            7.229744 Angstrom     dE/de1(xx)     0.000025 eV/strain
       b            4.671274 Angstrom     dE/de2(yy)    -0.000632 eV/strain
       c            6.403360 Angstrom     dE/de3(zz)    -0.000849 eV/strain
       alpha       93.966132 Degrees      dE/de4(yz)    -0.001900 eV/strain
       beta       106.604257 Degrees      dE/de5(xz)    -0.001940 eV/strain
       gamma       91.459099 Degrees      dE/de6(xy)    -0.001839 eV/strain
--------------------------------------------------------------------------------

  Primitive cell volume =           206.509668 Angs**3

  Density of cell =      4.576031 g/cm**3

  Non-primitive cell volume =           206.509668 Angs**3


  Final internal derivatives :

--------------------------------------------------------------------------------
   No.  Atomic          a             b             c           Radius
        Label          (eV)          (eV)          (eV)        (eV/Angs)
--------------------------------------------------------------------------------
      1 Al    c       0.000000      0.000000      0.000000      0.000000
      2 Al    c      -0.000737     -0.000985     -0.000205      0.000000
      3 Al    c       0.000433     -0.000340     -0.001260      0.000000
      4 Al    c      -0.000972     -0.001209      0.000817      0.000000
      5 Al    c       0.000116      0.000684      0.000330      0.000000
      6 Al    c       0.000447     -0.001926     -0.001172      0.000000
      7 Al    c      -0.000035      0.000422      0.001973      0.000000
      8 Al    c      -0.001005     -0.000907      0.000842      0.000000
      9 Mg    c      -0.000897     -0.000753      0.000088      0.000000
     10 Mg    c      -0.002903     -0.000266      0.000275      0.000000
     11 Mg    c      -0.000535      0.000737     -0.000321      0.000000
     12 Mg    c      -0.001254      0.000507      0.000811      0.000000
     13 O     c      -0.000026     -0.000474      0.000221      0.000000
     14 O     c       0.001778     -0.000604     -0.000887      0.000000
     15 O     c      -0.000199      0.001091      0.001733      0.000000
     16 O     c       0.001667     -0.001168      0.000608      0.000000
     17 O     c      -0.000796      0.000477      0.000970      0.000000
     18 O     c       0.000437      0.000092     -0.000200      0.000000
     19 O     c       0.000397     -0.000429      0.000701      0.000000
     20 O     c       0.000426     -0.000775      0.000467      0.000000
     21 O     c       0.000020      0.000734     -0.001004      0.000000
     22 O     c      -0.001906      0.001030     -0.001719      0.000000
     23 O     c       0.000200      0.000790      0.000804      0.000000
     24 O     c       0.004093      0.000735     -0.002874      0.000000
     25 O     c      -0.000252     -0.000818      0.000190      0.000000
     26 O     c      -0.001402     -0.001120      0.000505      0.000000
     27 O     c       0.000777     -0.000027     -0.000581      0.000000
     28 O     c       0.001595      0.000908      0.000537      0.000000
--------------------------------------------------------------------------------
  Maximum abs         0.004093      0.001926      0.002874      0.000000
--------------------------------------------------------------------------------


  Time to end of optimisation =       9.3088 seconds


  Peak dynamic memory used =       2.03 MB 


  Timing analysis for GULP :

--------------------------------------------------------------------------------
  Task / Subroutine                                          Time (Seconds)
--------------------------------------------------------------------------------
  Calculation of reciprocal space energy and derivatives          0.4491
  Calculation of real space energy and derivatives                8.6996
  Calculation and manipulation of Hessian matrix                  0.2049
  Global summation overhead                                       0.0010
--------------------------------------------------------------------------------
  Total CPU time                                                  9.3089
--------------------------------------------------------------------------------


  Job Finished at 16:05.28 11th June       2024                               

