********************************************************************************
*                       GENERAL UTILITY LATTICE PROGRAM                        *
*                                 Julian Gale                                  *
*                       Curtin Institute for Computation                       *
*                    School of Molecular and Life Sciences                     *
*                    Curtin University, Western Australia                      *
********************************************************************************
* Version = 6.0.0 * Last modified =  12th July 2021                            *
********************************************************************************
*  optimise     - perform optimisation run                                     *
*  conp         - constant pressure calculation                                *
*  nosymmetry   - turn off symmetry after initial structure generation         *
*  conjugate    - use conjugate gradients minimiser                            *
********************************************************************************

  Job Started  at 16:02.38 11th June       2024                               

  Number of CPUs =     1


  Total number of configurations input =      1

********************************************************************************
*  Input for Configuration =   1                                               *
********************************************************************************

  Formula = Al8Mg4O16                                                   

  Number of irreducible atoms/shells =      28


  Total number atoms/shells =      28

  Dimensionality = 3               :  Bulk   



  Cartesian lattice vectors (Angstroms) :

        5.185682   -2.592974   -0.119662
       -0.030884    5.157063   -0.005533
       -0.846794   -0.001412    7.827801

  Cell parameters (Angstroms/Degrees):

  a =       5.7991    alpha =  90.0345
  b =       5.1572    beta  =  96.6965
  c =       7.8735    gamma = 116.9017

  Initial cell volume =         208.176407 Angs**3

  Temperature of configuration =   0.00     K 

  Pressure of configuration =       100.000 GPa 

  Fractional coordinates of asymmetric unit :

--------------------------------------------------------------------------------
   No.  Atomic       x           y          z         Charge      Occupancy
        Label      (Frac)      (Frac)     (Frac)        (e)         (Frac)  
--------------------------------------------------------------------------------
      1 Al    c    0.114467    0.421610    0.268039     3.00000    1.000000    
      2 Al    c    0.223267 *  0.004613 *  0.268038 *   3.00000    1.000000    
      3 Al    c    0.027757 *  0.615003 *  0.905141 *   3.00000    1.000000    
      4 Al    c    0.027754 *  0.615001 *  0.552364 *   3.00000    1.000000    
      5 Al    c    0.323501 *  0.309557 *  0.498267 *   3.00000    1.000000    
      6 Al    c    0.323506 *  0.309560 *  0.037808 *   3.00000    1.000000    
      7 Al    c    0.887157 *  0.071723 *  0.368350 *   3.00000    1.000000    
      8 Al    c    0.741909 *  0.895630 *  0.051586 *   3.00000    1.000000    
      9 Mg    c    0.240766 *  0.409346 *  0.728750 *   2.00000    1.000000    
     10 Mg    c    0.495872 *  0.148915 *  0.728751 *   2.00000    1.000000    
     11 Mg    c    0.890877 *  0.246422 *  0.176005 *   2.00000    1.000000    
     12 Mg    c    0.696246 *  0.709896 *  0.218805 *   2.00000    1.000000    
     13 O     c    0.488063 *  0.176551 *  0.146309 *  -2.00000    1.000000    
     14 O     c    0.025993 *  0.128608 *  0.157291 *  -2.00000    1.000000    
     15 O     c    0.382445 *  0.731814 *  0.853746 *  -2.00000    1.000000    
     16 O     c    0.488060 *  0.176547 *  0.389767 *  -2.00000    1.000000    
     17 O     c    0.025992 *  0.128601 *  0.378786 *  -2.00000    1.000000    
     18 O     c    0.382439 *  0.731814 *  0.603757 *  -2.00000    1.000000    
     19 O     c    0.436403 *  0.590774 *  0.386907 *  -2.00000    1.000000    
     20 O     c    0.046809 *  0.624327 *  0.379739 *  -2.00000    1.000000    
     21 O     c    0.436411 *  0.590778 *  0.149167 *  -2.00000    1.000000    
     22 O     c    0.046815 *  0.624332 *  0.156338 *  -2.00000    1.000000    
     23 O     c    0.147534 *  0.033969 *  0.606459 *  -2.00000    1.000000    
     24 O     c    0.147539 *  0.033971 *  0.851047 *  -2.00000    1.000000    
     25 O     c    0.604876 *  0.069308 *  0.628485 *  -2.00000    1.000000    
     26 O     c    0.523045 *  0.544192 *  0.719278 *  -2.00000    1.000000    
     27 O     c    0.805142 *  0.711965 *  0.783442 *  -2.00000    1.000000    
     28 O     c    0.754787 *  0.252925 *  0.509582 *  -2.00000    1.000000    
--------------------------------------------------------------------------------



********************************************************************************
*  General input information                                                   *
********************************************************************************

  Species output for all configurations : 

--------------------------------------------------------------------------------
  Species    Type    Atomic    Atomic    Charge       Radii (Angs)     Library
                     Number     Mass       (e)     Cova   Ionic  VDW   Symbol
--------------------------------------------------------------------------------
    Mg       Core       12      24.31   2.000000   1.100  0.000  1.640          
    Al       Core       13      26.98   3.000000   1.350  0.000  2.050          
    O        Core        8      16.00  -2.000000   0.730  0.000  1.360          
--------------------------------------------------------------------------------


  Lattice summation method               =    Ewald          (3-D)
                                         =    Parry          (2-D)
                                         =    Saunders et al (1-D)
  Accuracy factor for lattice sums       =   12.000


  Analytic derivatives to be used

  Time limit = Infinity

  Maximum range for interatomic potentials =    100000.000000 Angstroms

  General interatomic potentials :

--------------------------------------------------------------------------------
Atom  Types   Potential      Parameter       Value         Units   Cutoffs(Ang)
  1     2                                                            Min /  Max 
--------------------------------------------------------------------------------
O    c Mg   c Lennard       Lennard-Jones A  1.5000000    eV*Ang^m  0.000  6.000
                            Lennard-Jones B  0.0000000    eV*Ang^n  
                            Exponent m        12          None
                            Exponent n         6          None
--------------------------------------------------------------------------------
O    c Al   c Lennard       Lennard-Jones A  1.5000000    eV*Ang^m  0.000  6.000
                            Lennard-Jones B  0.0000000    eV*Ang^n  
                            Exponent m        12          None
                            Exponent n         6          None
--------------------------------------------------------------------------------
O    c O    c Lennard       Lennard-Jones A  1.5000000    eV*Ang^m  0.000  6.000
                            Lennard-Jones B  0.0000000    eV*Ang^n  
                            Exponent m        12          None
                            Exponent n         6          None
--------------------------------------------------------------------------------
Mg   c Mg   c Lennard       Lennard-Jones A  1.5000000    eV*Ang^m  0.000  6.000
                            Lennard-Jones B  0.0000000    eV*Ang^n  
                            Exponent m        12          None
                            Exponent n         6          None
--------------------------------------------------------------------------------
Mg   c Al   c Lennard       Lennard-Jones A  1.5000000    eV*Ang^m  0.000  6.000
                            Lennard-Jones B  0.0000000    eV*Ang^n  
                            Exponent m        12          None
                            Exponent n         6          None
--------------------------------------------------------------------------------
Al   c Al   c Lennard       Lennard-Jones A  1.5000000    eV*Ang^m  0.000  6.000
                            Lennard-Jones B  0.0000000    eV*Ang^n  
                            Exponent m        12          None
                            Exponent n         6          None
--------------------------------------------------------------------------------
O    c Mg   c Buckingham    Buckingham A     1428.5000    eV        0.000  7.000
                            Buckingham rho  0.29450000    Ang       
                            Buckingham C     0.0000000    eV*Ang^6  
--------------------------------------------------------------------------------
O    c Al   c Buckingham    Buckingham A     1114.9000    eV        0.000  7.000
                            Buckingham rho  0.31180000    Ang       
                            Buckingham C     0.0000000    eV*Ang^6  
--------------------------------------------------------------------------------
O    c O    c Buckingham    Buckingham A     2023.8000    eV        0.000  7.000
                            Buckingham rho  0.26740000    Ang       
                            Buckingham C     0.0000000    eV*Ang^6  
--------------------------------------------------------------------------------

********************************************************************************
*  Output for configuration   1                                                *
********************************************************************************


  Components of enthalpy : 

--------------------------------------------------------------------------------
  Interatomic potentials     =         504.22227858 eV    
  Monopole - monopole (real) =        -378.60926907 eV    
  Monopole - monopole (recip)=        -440.57537251 eV    
  Monopole - monopole (total)=        -819.18464158 eV    
  Pressure*volume            =         129.93249043 eV    
--------------------------------------------------------------------------------
  Total lattice enthalpy     =        -185.02987257 eV    
--------------------------------------------------------------------------------
  Total lattice enthalpy     =          -17852.5543 kJ/(mole unit cells)
--------------------------------------------------------------------------------


  Number of variables =       87

  Maximum number of calculations  =           850
  Maximum Hessian update interval =            10
  Maximum step size               =   1.000000000
  Maximum parameter tolerance     =   0.000010000
  Maximum function  tolerance     =   0.000010000
  Maximum gradient  tolerance     =   0.001000000
  Maximum gradient  component     =   0.010000000

  Cell parameters to be optimised using strains

  Conjugate gradient optimiser to be used

  Lower half triangular hessian to be used

  Minimiser to switch to RFO
  When gradient norm is less than     0.010000

  Start of bulk optimisation :

  Cycle:      0 Energy:      -185.029873  Gnorm:    143.932375  CPU:    0.058
  Cycle:      1 Energy:      -362.794545  Gnorm:     15.545971  CPU:    0.199
  Cycle:      2 Energy:      -516.233254  Gnorm:      8.109127  CPU:    0.316
  Cycle:      3 Energy:      -560.336187  Gnorm:      4.359230  CPU:    0.420
  Cycle:      4 Energy:      -581.121435  Gnorm:      3.465587  CPU:    0.524
  Cycle:      5 Energy:      -593.831839  Gnorm:      2.956565  CPU:    0.609
  Cycle:      6 Energy:      -600.755825  Gnorm:      2.281124  CPU:    0.680
  Cycle:      7 Energy:      -607.045174  Gnorm:      1.974715  CPU:    0.750
  Cycle:      8 Energy:      -612.248757  Gnorm:      1.948825  CPU:    0.819
  Cycle:      9 Energy:      -616.484141  Gnorm:      1.793582  CPU:    0.893
  Cycle:     10 Energy:      -618.592492  Gnorm:      1.360736  CPU:    0.950
  Cycle:     11 Energy:      -620.981728  Gnorm:      1.338044  CPU:    1.024
  Cycle:     12 Energy:      -623.336814  Gnorm:      1.343470  CPU:    1.094
  Cycle:     13 Energy:      -626.952912  Gnorm:      1.311452  CPU:    1.169
  Cycle:     14 Energy:      -629.709895  Gnorm:      1.130128  CPU:    1.240
  Cycle:     15 Energy:      -631.111252  Gnorm:      1.174615  CPU:    1.329
  Cycle:     16 Energy:      -632.312854  Gnorm:      0.951862  CPU:    1.419
  Cycle:     17 Energy:      -633.951099  Gnorm:      1.157537  CPU:    1.556
  Cycle:     18 Energy:      -635.596623  Gnorm:      0.996992  CPU:    1.688
  Cycle:     19 Energy:      -636.454833  Gnorm:      0.887896  CPU:    1.820
  Cycle:     20 Energy:      -637.102095  Gnorm:      0.844706  CPU:    1.952
  Cycle:     21 Energy:      -637.924777  Gnorm:      0.652849  CPU:    2.119
  Cycle:     22 Energy:      -638.429671  Gnorm:      0.612469  CPU:    2.281
  Cycle:     23 Energy:      -638.946400  Gnorm:      0.632383  CPU:    2.443
  Cycle:     24 Energy:      -639.424455  Gnorm:      0.522162  CPU:    2.571
  Cycle:     25 Energy:      -639.865562  Gnorm:      0.452975  CPU:    2.736
  Cycle:     26 Energy:      -640.056723  Gnorm:      0.414613  CPU:    2.863
  Cycle:     27 Energy:      -640.191142  Gnorm:      0.263511  CPU:    2.994
  Cycle:     28 Energy:      -640.294184  Gnorm:      0.258500  CPU:    3.160
  Cycle:     29 Energy:      -640.368246  Gnorm:      0.258851  CPU:    3.287
  Cycle:     30 Energy:      -640.407724  Gnorm:      0.190294  CPU:    3.418
  Cycle:     31 Energy:      -640.459927  Gnorm:      0.185789  CPU:    3.583
  Cycle:     32 Energy:      -640.501846  Gnorm:      0.202182  CPU:    3.710
  Cycle:     33 Energy:      -640.549142  Gnorm:      0.167155  CPU:    3.876
  Cycle:     34 Energy:      -640.596935  Gnorm:      0.147655  CPU:    4.038
  Cycle:     35 Energy:      -640.636325  Gnorm:      0.140065  CPU:    4.200
  Cycle:     36 Energy:      -640.682952  Gnorm:      0.149708  CPU:    4.361
  Cycle:     37 Energy:      -640.714592  Gnorm:      0.150572  CPU:    4.489
  Cycle:     38 Energy:      -640.733556  Gnorm:      0.138579  CPU:    4.621
  Cycle:     39 Energy:      -640.764211  Gnorm:      0.141206  CPU:    4.787
  Cycle:     40 Energy:      -640.777290  Gnorm:      0.100501  CPU:    4.915
  Cycle:     41 Energy:      -640.788090  Gnorm:      0.089995  CPU:    5.081
  Cycle:     42 Energy:      -640.799528  Gnorm:      0.109647  CPU:    5.209
  Cycle:     43 Energy:      -640.812708  Gnorm:      0.095209  CPU:    5.341
  Cycle:     44 Energy:      -640.826958  Gnorm:      0.087048  CPU:    5.507
  Cycle:     45 Energy:      -640.844770  Gnorm:      0.107974  CPU:    5.668
  Cycle:     46 Energy:      -640.859649  Gnorm:      0.126245  CPU:    5.796
  Cycle:     47 Energy:      -640.877462  Gnorm:      0.122406  CPU:    5.926
  Cycle:     48 Energy:      -640.897236  Gnorm:      0.130363  CPU:    6.057
  Cycle:     49 Energy:      -640.920869  Gnorm:      0.148635  CPU:    6.222
  Cycle:     50 Energy:      -640.936217  Gnorm:      0.113479  CPU:    6.348
  Cycle:     51 Energy:      -640.953812  Gnorm:      0.111582  CPU:    6.479
  Cycle:     52 Energy:      -640.966170  Gnorm:      0.100290  CPU:    6.610
  Cycle:     53 Energy:      -640.976815  Gnorm:      0.102961  CPU:    6.775
  Cycle:     54 Energy:      -640.994147  Gnorm:      0.076299  CPU:    6.902
  Cycle:     55 Energy:      -641.005081  Gnorm:      0.079159  CPU:    7.033
  Cycle:     56 Energy:      -641.019066  Gnorm:      0.082123  CPU:    7.198
  Cycle:     57 Energy:      -641.029085  Gnorm:      0.098565  CPU:    7.325
  Cycle:     58 Energy:      -641.036558  Gnorm:      0.085857  CPU:    7.456
  Cycle:     59 Energy:      -641.077784  Gnorm:      0.193061  CPU:    7.622
  Cycle:     60 Energy:      -641.108192  Gnorm:      0.092190  CPU:    7.749
  Cycle:     61 Energy:      -641.116723  Gnorm:      0.098377  CPU:    7.880
  Cycle:     62 Energy:      -641.126304  Gnorm:      0.082105  CPU:    8.012
  Cycle:     63 Energy:      -641.137513  Gnorm:      0.095446  CPU:    8.143
  Cycle:     64 Energy:      -641.148454  Gnorm:      0.093679  CPU:    8.274
  Cycle:     65 Energy:      -641.161293  Gnorm:      0.096163  CPU:    8.440
  Cycle:     66 Energy:      -641.186713  Gnorm:      0.112796  CPU:    8.601
  Cycle:     67 Energy:      -641.211814  Gnorm:      0.156986  CPU:    8.728
  Cycle:     68 Energy:      -641.235168  Gnorm:      0.165857  CPU:    8.859
  Cycle:     69 Energy:      -641.279771  Gnorm:      0.202365  CPU:    9.024
  Cycle:     70 Energy:      -641.302772  Gnorm:      0.153791  CPU:    9.151
  Cycle:     71 Energy:      -641.336199  Gnorm:      0.161868  CPU:    9.317
  Cycle:     72 Energy:      -641.384690  Gnorm:      0.160694  CPU:    9.478
  Cycle:     73 Energy:      -641.416074  Gnorm:      0.168908  CPU:    9.606
  Cycle:     74 Energy:      -641.452058  Gnorm:      0.141896  CPU:    9.771
  Cycle:     75 Energy:      -641.497361  Gnorm:      0.177083  CPU:    9.933
  Cycle:     76 Energy:      -641.531346  Gnorm:      0.199201  CPU:   10.061
  Cycle:     77 Energy:      -641.574609  Gnorm:      0.198194  CPU:   10.227
  Cycle:     78 Energy:      -641.660672  Gnorm:      0.251507  CPU:   10.390
  Cycle:     79 Energy:      -641.803628  Gnorm:      0.395273  CPU:   10.553
  Cycle:     80 Energy:      -641.897585  Gnorm:      0.307142  CPU:   10.716
  Cycle:     81 Energy:      -642.003835  Gnorm:      0.240476  CPU:   10.878
  Cycle:     82 Energy:      -642.060922  Gnorm:      0.224746  CPU:   11.007
  Cycle:     83 Energy:      -642.123734  Gnorm:      0.192447  CPU:   11.174
  Cycle:     84 Energy:      -642.187448  Gnorm:      0.179351  CPU:   11.302
  Cycle:     85 Energy:      -642.246588  Gnorm:      0.174952  CPU:   11.469
  Cycle:     86 Energy:      -642.302934  Gnorm:      0.150170  CPU:   11.632
  Cycle:     87 Energy:      -642.337808  Gnorm:      0.180747  CPU:   11.760
  Cycle:     88 Energy:      -642.362299  Gnorm:      0.146465  CPU:   11.892
  Cycle:     89 Energy:      -642.403502  Gnorm:      0.196645  CPU:   12.059
  Cycle:     90 Energy:      -642.426413  Gnorm:      0.131366  CPU:   12.187
  Cycle:     91 Energy:      -642.445958  Gnorm:      0.129763  CPU:   12.354
  Cycle:     92 Energy:      -642.466505  Gnorm:      0.145395  CPU:   12.483
  Cycle:     93 Energy:      -642.489012  Gnorm:      0.117013  CPU:   12.615
  Cycle:     94 Energy:      -642.516676  Gnorm:      0.106749  CPU:   12.782
  Cycle:     95 Energy:      -642.538888  Gnorm:      0.102512  CPU:   12.945
  Cycle:     96 Energy:      -642.559332  Gnorm:      0.104182  CPU:   13.108
  Cycle:     97 Energy:      -642.579454  Gnorm:      0.114210  CPU:   13.271
  Cycle:     98 Energy:      -642.595373  Gnorm:      0.145191  CPU:   13.399
  Cycle:     99 Energy:      -642.616777  Gnorm:      0.123042  CPU:   13.520
  Cycle:    100 Energy:      -642.629774  Gnorm:      0.115007  CPU:   13.610
  Cycle:    101 Energy:      -642.640214  Gnorm:      0.079051  CPU:   13.701
  Cycle:    102 Energy:      -642.648137  Gnorm:      0.079931  CPU:   13.786
  Cycle:    103 Energy:      -642.655006  Gnorm:      0.070905  CPU:   13.877
  Cycle:    104 Energy:      -642.662678  Gnorm:      0.068236  CPU:   13.962
  Cycle:    105 Energy:      -642.671548  Gnorm:      0.070187  CPU:   14.053
  Cycle:    106 Energy:      -642.682455  Gnorm:      0.072459  CPU:   14.159
  Cycle:    107 Energy:      -642.692353  Gnorm:      0.090302  CPU:   14.249
  Cycle:    108 Energy:      -642.698668  Gnorm:      0.085025  CPU:   14.339
  Cycle:    109 Energy:      -642.710723  Gnorm:      0.096330  CPU:   14.445
  Cycle:    110 Energy:      -642.718604  Gnorm:      0.083882  CPU:   14.535
  Cycle:    111 Energy:      -642.724182  Gnorm:      0.071631  CPU:   14.626
  Cycle:    112 Energy:      -642.732426  Gnorm:      0.067607  CPU:   14.711
  Cycle:    113 Energy:      -642.739235  Gnorm:      0.072152  CPU:   14.802
  Cycle:    114 Energy:      -642.745480  Gnorm:      0.068024  CPU:   14.888
  Cycle:    115 Energy:      -642.751905  Gnorm:      0.062371  CPU:   14.978
  Cycle:    116 Energy:      -642.759392  Gnorm:      0.066953  CPU:   15.085
  Cycle:    117 Energy:      -642.765233  Gnorm:      0.088161  CPU:   15.175
  Cycle:    118 Energy:      -642.772350  Gnorm:      0.073636  CPU:   15.266
  Cycle:    119 Energy:      -642.787635  Gnorm:      0.100146  CPU:   15.372
  Cycle:    120 Energy:      -642.795652  Gnorm:      0.088413  CPU:   15.461
  Cycle:    121 Energy:      -642.801509  Gnorm:      0.064852  CPU:   15.552
  Cycle:    122 Energy:      -642.808713  Gnorm:      0.063640  CPU:   15.658
  Cycle:    123 Energy:      -642.815915  Gnorm:      0.063533  CPU:   15.747
  Cycle:    124 Energy:      -642.823456  Gnorm:      0.071205  CPU:   15.838
  Cycle:    125 Energy:      -642.829704  Gnorm:      0.077123  CPU:   15.923
  Cycle:    126 Energy:      -642.839126  Gnorm:      0.073389  CPU:   16.034
  Cycle:    127 Energy:      -642.850412  Gnorm:      0.079601  CPU:   16.140
  Cycle:    128 Energy:      -642.860460  Gnorm:      0.119300  CPU:   16.230
  Cycle:    129 Energy:      -642.874733  Gnorm:      0.121401  CPU:   16.340
  Cycle:    130 Energy:      -642.887465  Gnorm:      0.116377  CPU:   16.426
  Cycle:    131 Energy:      -642.898319  Gnorm:      0.086174  CPU:   16.516
  Cycle:    132 Energy:      -642.909118  Gnorm:      0.081294  CPU:   16.623
  Cycle:    133 Energy:      -642.921035  Gnorm:      0.080507  CPU:   16.712
  Cycle:    134 Energy:      -642.929722  Gnorm:      0.090261  CPU:   16.803
  Cycle:    135 Energy:      -642.939858  Gnorm:      0.078955  CPU:   16.909
  Cycle:    136 Energy:      -642.953248  Gnorm:      0.084198  CPU:   16.999
  Cycle:    137 Energy:      -642.965742  Gnorm:      0.104253  CPU:   17.090
  Cycle:    138 Energy:      -642.974523  Gnorm:      0.101239  CPU:   17.176
  Cycle:    139 Energy:      -642.992042  Gnorm:      0.131387  CPU:   17.287
  Cycle:    140 Energy:      -643.005313  Gnorm:      0.106145  CPU:   17.373
  Cycle:    141 Energy:      -643.015961  Gnorm:      0.109416  CPU:   17.464
  Cycle:    142 Energy:      -643.030783  Gnorm:      0.092045  CPU:   17.571
  Cycle:    143 Energy:      -643.051240  Gnorm:      0.093429  CPU:   17.682
  Cycle:    144 Energy:      -643.070911  Gnorm:      0.108977  CPU:   17.792
  Cycle:    145 Energy:      -643.086240  Gnorm:      0.119430  CPU:   17.883
  Cycle:    146 Energy:      -643.108785  Gnorm:      0.140677  CPU:   17.994
  Cycle:    147 Energy:      -643.136679  Gnorm:      0.148811  CPU:   18.080
  Cycle:    148 Energy:      -643.167021  Gnorm:      0.217872  CPU:   18.190
  Cycle:    149 Energy:      -643.230711  Gnorm:      0.229318  CPU:   18.297
  Cycle:    150 Energy:      -643.301762  Gnorm:      0.225938  CPU:   18.387
  Cycle:    151 Energy:      -643.339025  Gnorm:      0.186553  CPU:   18.478
  Cycle:    152 Energy:      -643.383868  Gnorm:      0.177075  CPU:   18.585
  Cycle:    153 Energy:      -643.421543  Gnorm:      0.163495  CPU:   18.696
  Cycle:    154 Energy:      -643.450330  Gnorm:      0.149924  CPU:   18.787
  Cycle:    155 Energy:      -643.488849  Gnorm:      0.145016  CPU:   18.878
  Cycle:    156 Energy:      -643.528764  Gnorm:      0.139799  CPU:   18.985
  Cycle:    157 Energy:      -643.567022  Gnorm:      0.173420  CPU:   19.096
  Cycle:    158 Energy:      -643.591356  Gnorm:      0.167352  CPU:   19.186
  Cycle:    159 Energy:      -643.630885  Gnorm:      0.198763  CPU:   19.298
  Cycle:    160 Energy:      -643.658094  Gnorm:      0.154372  CPU:   19.384
  Cycle:    161 Energy:      -643.682415  Gnorm:      0.167627  CPU:   19.476
  Cycle:    162 Energy:      -643.720366  Gnorm:      0.131059  CPU:   19.583
  Cycle:    163 Energy:      -643.762116  Gnorm:      0.147750  CPU:   19.694
  Cycle:    164 Energy:      -643.799704  Gnorm:      0.144331  CPU:   19.785
  Cycle:    165 Energy:      -643.826700  Gnorm:      0.156626  CPU:   19.878
  Cycle:    166 Energy:      -643.861432  Gnorm:      0.177180  CPU:   19.985
  Cycle:    167 Energy:      -643.911836  Gnorm:      0.194450  CPU:   20.096
  Cycle:    168 Energy:      -643.960258  Gnorm:      0.261193  CPU:   20.186
  Cycle:    169 Energy:      -644.036868  Gnorm:      0.236130  CPU:   20.297
  Cycle:    170 Energy:      -644.099748  Gnorm:      0.229943  CPU:   20.383
  Cycle:    171 Energy:      -644.140716  Gnorm:      0.188407  CPU:   20.474
  Cycle:    172 Energy:      -644.185821  Gnorm:      0.165705  CPU:   20.581
  Cycle:    173 Energy:      -644.216132  Gnorm:      0.162969  CPU:   20.671
  Cycle:    174 Energy:      -644.248573  Gnorm:      0.149506  CPU:   20.762
  Cycle:    175 Energy:      -644.291266  Gnorm:      0.157189  CPU:   20.868
  Cycle:    176 Energy:      -644.342184  Gnorm:      0.147103  CPU:   20.979
  Cycle:    177 Energy:      -644.404169  Gnorm:      0.202727  CPU:   21.090
  Cycle:    178 Energy:      -644.439522  Gnorm:      0.229876  CPU:   21.180
  Cycle:    179 Energy:      -644.535438  Gnorm:      0.317339  CPU:   21.291
  Cycle:    180 Energy:      -644.581579  Gnorm:      0.186825  CPU:   21.377
  Cycle:    181 Energy:      -644.625120  Gnorm:      0.176187  CPU:   21.488
  Cycle:    182 Energy:      -644.678870  Gnorm:      0.172062  CPU:   21.595
  Cycle:    183 Energy:      -644.731344  Gnorm:      0.181778  CPU:   21.709
  Cycle:    184 Energy:      -644.772913  Gnorm:      0.192920  CPU:   21.799
  Cycle:    185 Energy:      -644.815989  Gnorm:      0.156781  CPU:   21.910
  Cycle:    186 Energy:      -644.864819  Gnorm:      0.201430  CPU:   22.017
  Cycle:    187 Energy:      -644.901279  Gnorm:      0.217029  CPU:   22.107
  Cycle:    188 Energy:      -644.981915  Gnorm:      0.210491  CPU:   22.218
  Cycle:    189 Energy:      -645.060102  Gnorm:      0.293533  CPU:   22.324
  Cycle:    190 Energy:      -645.104256  Gnorm:      0.208079  CPU:   22.414
  Cycle:    191 Energy:      -645.170691  Gnorm:      0.173845  CPU:   22.525
  Cycle:    192 Energy:      -645.222358  Gnorm:      0.163818  CPU:   22.632
  Cycle:    193 Energy:      -645.254691  Gnorm:      0.174328  CPU:   22.722
  Cycle:    194 Energy:      -645.296448  Gnorm:      0.164206  CPU:   22.833
  Cycle:    195 Energy:      -645.351599  Gnorm:      0.175853  CPU:   22.940
  Cycle:    196 Energy:      -645.410597  Gnorm:      0.184312  CPU:   23.052
  Cycle:    197 Energy:      -645.483177  Gnorm:      0.168431  CPU:   23.164
  Cycle:    198 Energy:      -645.582231  Gnorm:      0.331761  CPU:   23.276
  Cycle:    199 Energy:      -645.694747  Gnorm:      0.397200  CPU:   23.367
  Cycle:    200 Energy:      -645.796190  Gnorm:      0.305618  CPU:   23.479
  Cycle:    201 Energy:      -645.873486  Gnorm:      0.171184  CPU:   23.587
  Cycle:    202 Energy:      -645.932993  Gnorm:      0.200219  CPU:   23.700
  Cycle:    203 Energy:      -645.969505  Gnorm:      0.173312  CPU:   23.791
  Cycle:    204 Energy:      -646.025961  Gnorm:      0.167170  CPU:   23.883
  Cycle:    205 Energy:      -646.083416  Gnorm:      0.203213  CPU:   23.991
  Cycle:    206 Energy:      -646.146609  Gnorm:      0.205582  CPU:   24.082
  Cycle:    207 Energy:      -646.191476  Gnorm:      0.201550  CPU:   24.174
  Cycle:    208 Energy:      -646.245026  Gnorm:      0.204681  CPU:   24.282
  Cycle:    209 Energy:      -646.283735  Gnorm:      0.196721  CPU:   24.373
  Cycle:    210 Energy:      -646.309974  Gnorm:      0.168398  CPU:   24.465
  Cycle:    211 Energy:      -646.355247  Gnorm:      0.185451  CPU:   24.553
  Cycle:    212 Energy:      -646.393430  Gnorm:      0.193513  CPU:   24.645
  Cycle:    213 Energy:      -646.444489  Gnorm:      0.202228  CPU:   24.753
  Cycle:    214 Energy:      -646.510678  Gnorm:      0.164200  CPU:   24.866
  Cycle:    215 Energy:      -646.556029  Gnorm:      0.152729  CPU:   24.979
  Cycle:    216 Energy:      -646.608913  Gnorm:      0.201768  CPU:   25.093
  Cycle:    217 Energy:      -646.645243  Gnorm:      0.211182  CPU:   25.186
  Cycle:    218 Energy:      -646.714768  Gnorm:      0.219006  CPU:   25.299
  Cycle:    219 Energy:      -646.810538  Gnorm:      0.351465  CPU:   25.409
  Cycle:    220 Energy:      -646.875251  Gnorm:      0.220519  CPU:   25.525
  Cycle:    221 Energy:      -646.922455  Gnorm:      0.141846  CPU:   25.639
  Cycle:    222 Energy:      -646.951379  Gnorm:      0.159226  CPU:   25.753
  Cycle:    223 Energy:      -646.980533  Gnorm:      0.144142  CPU:   25.847
  Cycle:    224 Energy:      -647.009918  Gnorm:      0.122733  CPU:   25.940
  Cycle:    225 Energy:      -647.053708  Gnorm:      0.156185  CPU:   26.051
  Cycle:    226 Energy:      -647.088740  Gnorm:      0.152052  CPU:   26.144
  Cycle:    227 Energy:      -647.111220  Gnorm:      0.158092  CPU:   26.238
  Cycle:    228 Energy:      -647.136645  Gnorm:      0.102737  CPU:   26.348
  Cycle:    229 Energy:      -647.155075  Gnorm:      0.154418  CPU:   26.438
  Cycle:    230 Energy:      -647.168051  Gnorm:      0.090166  CPU:   26.528
  Cycle:    231 Energy:      -647.186053  Gnorm:      0.102891  CPU:   26.638
  Cycle:    232 Energy:      -647.206495  Gnorm:      0.116938  CPU:   26.750
  Cycle:    233 Energy:      -647.223294  Gnorm:      0.150160  CPU:   26.839
  Cycle:    234 Energy:      -647.246377  Gnorm:      0.098203  CPU:   26.950
  Cycle:    235 Energy:      -647.261746  Gnorm:      0.093742  CPU:   27.061
  Cycle:    236 Energy:      -647.282641  Gnorm:      0.095371  CPU:   27.172
  Cycle:    237 Energy:      -647.293919  Gnorm:      0.119964  CPU:   27.262
  Cycle:    238 Energy:      -647.309432  Gnorm:      0.110612  CPU:   27.374
  Cycle:    239 Energy:      -647.340166  Gnorm:      0.196412  CPU:   27.485
  Cycle:    240 Energy:      -647.357993  Gnorm:      0.084193  CPU:   27.597
  Cycle:    241 Energy:      -647.365170  Gnorm:      0.071463  CPU:   27.687
  Cycle:    242 Energy:      -647.370776  Gnorm:      0.076459  CPU:   27.777
  Cycle:    243 Energy:      -647.378212  Gnorm:      0.073156  CPU:   27.889
  Cycle:    244 Energy:      -647.387309  Gnorm:      0.063320  CPU:   27.980
  Cycle:    245 Energy:      -647.399614  Gnorm:      0.093057  CPU:   28.091
  Cycle:    246 Energy:      -647.413922  Gnorm:      0.074486  CPU:   28.182
  Cycle:    247 Energy:      -647.419295  Gnorm:      0.076486  CPU:   28.272
  Cycle:    248 Energy:      -647.425579  Gnorm:      0.065243  CPU:   28.384
  Cycle:    249 Energy:      -647.431335  Gnorm:      0.078984  CPU:   28.496
  Cycle:    250 Energy:      -647.435009  Gnorm:      0.053282  CPU:   28.587
  Cycle:    251 Energy:      -647.439958  Gnorm:      0.050053  CPU:   28.699
  Cycle:    252 Energy:      -647.442764  Gnorm:      0.065554  CPU:   28.790
  Cycle:    253 Energy:      -647.450308  Gnorm:      0.077104  CPU:   28.902
  Cycle:    254 Energy:      -647.458793  Gnorm:      0.058886  CPU:   28.992
  Cycle:    255 Energy:      -647.463787  Gnorm:      0.064427  CPU:   29.113
  Cycle:    256 Energy:      -647.467353  Gnorm:      0.058027  CPU:   29.209
  Cycle:    257 Energy:      -647.472614  Gnorm:      0.056944  CPU:   29.323
  Cycle:    258 Energy:      -647.477353  Gnorm:      0.064728  CPU:   29.437
  Cycle:    259 Energy:      -647.483286  Gnorm:      0.077515  CPU:   29.552
  Cycle:    260 Energy:      -647.487697  Gnorm:      0.056005  CPU:   29.644
  Cycle:    261 Energy:      -647.491046  Gnorm:      0.052478  CPU:   29.736
  Cycle:    262 Energy:      -647.494977  Gnorm:      0.057418  CPU:   29.828
  Cycle:    263 Energy:      -647.497811  Gnorm:      0.050469  CPU:   29.924
  Cycle:    264 Energy:      -647.502329  Gnorm:      0.050886  CPU:   30.015
  Cycle:    265 Energy:      -647.506606  Gnorm:      0.047506  CPU:   30.106
  Cycle:    266 Energy:      -647.511304  Gnorm:      0.038263  CPU:   30.197
  Cycle:    267 Energy:      -647.513932  Gnorm:      0.035429  CPU:   30.290
  Cycle:    268 Energy:      -647.515436  Gnorm:      0.045670  CPU:   30.381
  Cycle:    269 Energy:      -647.518601  Gnorm:      0.064787  CPU:   30.494
  Cycle:    270 Energy:      -647.521298  Gnorm:      0.041682  CPU:   30.585
  Cycle:    271 Energy:      -647.522563  Gnorm:      0.032289  CPU:   30.676
  Cycle:    272 Energy:      -647.524664  Gnorm:      0.034419  CPU:   30.767
  Cycle:    273 Energy:      -647.527662  Gnorm:      0.045539  CPU:   30.859
  Cycle:    274 Energy:      -647.529869  Gnorm:      0.043172  CPU:   30.951
  Cycle:    275 Energy:      -647.532547  Gnorm:      0.040281  CPU:   31.042
  Cycle:    276 Energy:      -647.534994  Gnorm:      0.036595  CPU:   31.133
  Cycle:    277 Energy:      -647.537349  Gnorm:      0.038497  CPU:   31.225
  Cycle:    278 Energy:      -647.539297  Gnorm:      0.037221  CPU:   31.316
  Cycle:    279 Energy:      -647.541353  Gnorm:      0.050159  CPU:   31.407
  Cycle:    280 Energy:      -647.542941  Gnorm:      0.037231  CPU:   31.500
  Cycle:    281 Energy:      -647.544380  Gnorm:      0.032676  CPU:   31.592
  Cycle:    282 Energy:      -647.545950  Gnorm:      0.036150  CPU:   31.683
  Cycle:    283 Energy:      -647.547239  Gnorm:      0.031921  CPU:   31.775
  Cycle:    284 Energy:      -647.549184  Gnorm:      0.030212  CPU:   31.889
  Cycle:    285 Energy:      -647.551228  Gnorm:      0.031344  CPU:   31.981
  Cycle:    286 Energy:      -647.553142  Gnorm:      0.026439  CPU:   32.073
  Cycle:    287 Energy:      -647.554151  Gnorm:      0.030990  CPU:   32.164
  Cycle:    288 Energy:      -647.554855  Gnorm:      0.024116  CPU:   32.256
  Cycle:    289 Energy:      -647.556953  Gnorm:      0.053747  CPU:   32.375
  Cycle:    290 Energy:      -647.558585  Gnorm:      0.025195  CPU:   32.467
  Cycle:    291 Energy:      -647.559154  Gnorm:      0.023460  CPU:   32.558
  Cycle:    292 Energy:      -647.560047  Gnorm:      0.027746  CPU:   32.652
  Cycle:    293 Energy:      -647.560798  Gnorm:      0.027662  CPU:   32.744
  Cycle:    294 Energy:      -647.562128  Gnorm:      0.025499  CPU:   32.836
  Cycle:    295 Energy:      -647.563288  Gnorm:      0.026233  CPU:   32.927
  Cycle:    296 Energy:      -647.564112  Gnorm:      0.028749  CPU:   33.019
  Cycle:    297 Energy:      -647.564866  Gnorm:      0.024012  CPU:   33.111
  Cycle:    298 Energy:      -647.565795  Gnorm:      0.025694  CPU:   33.224
  Cycle:    299 Energy:      -647.566505  Gnorm:      0.024195  CPU:   33.316
  Cycle:    300 Energy:      -647.566946  Gnorm:      0.022239  CPU:   33.409
  Cycle:    301 Energy:      -647.567833  Gnorm:      0.024863  CPU:   33.507
  Cycle:    302 Energy:      -647.568434  Gnorm:      0.024627  CPU:   33.598
  Cycle:    303 Energy:      -647.569186  Gnorm:      0.025421  CPU:   33.690
  Cycle:    304 Energy:      -647.570153  Gnorm:      0.018422  CPU:   33.781
  Cycle:    305 Energy:      -647.570886  Gnorm:      0.020529  CPU:   33.873
  Cycle:    306 Energy:      -647.571605  Gnorm:      0.015919  CPU:   33.965
  Cycle:    307 Energy:      -647.572074  Gnorm:      0.015415  CPU:   34.057
  Cycle:    308 Energy:      -647.573193  Gnorm:      0.034213  CPU:   34.148
  Cycle:    309 Energy:      -647.576099  Gnorm:      0.061737  CPU:   34.261
  Cycle:    310 Energy:      -647.577742  Gnorm:      0.025086  CPU:   34.353
  Cycle:    311 Energy:      -647.578384  Gnorm:      0.020550  CPU:   34.445
  Cycle:    312 Energy:      -647.578753  Gnorm:      0.018325  CPU:   34.538
  Cycle:    313 Energy:      -647.579149  Gnorm:      0.013339  CPU:   34.631
  Cycle:    314 Energy:      -647.579546  Gnorm:      0.012938  CPU:   34.723
  Cycle:    315 Energy:      -647.579849  Gnorm:      0.013148  CPU:   34.814
  Cycle:    316 Energy:      -647.580286  Gnorm:      0.015423  CPU:   34.906
  Cycle:    317 Energy:      -647.580805  Gnorm:      0.014959  CPU:   34.998
  Cycle:    318 Energy:      -647.581043  Gnorm:      0.010200  CPU:   35.090
  Cycle:    319 Energy:      -647.581133  Gnorm:      0.012098  CPU:   35.182
  Cycle:    320 Energy:      -647.581211  Gnorm:      0.009247  CPU:   35.274
  ** Hessian has required structure
  Cycle:    321 Energy:      -647.584072  Gnorm:      0.007233  CPU:   35.575
  ** Hessian has required structure
  Cycle:    322 Energy:      -647.586722  Gnorm:      0.005580  CPU:   35.728
  ** Hessian has required structure
  Cycle:    323 Energy:      -647.588885  Gnorm:      0.004882  CPU:   35.881
  ** Hessian has required structure
  Cycle:    324 Energy:      -647.589857  Gnorm:      0.004733  CPU:   36.012
  ** Hessian has required structure
  Cycle:    325 Energy:      -647.590095  Gnorm:      0.001003  CPU:   36.144
  ** Hessian has required structure
  Cycle:    326 Energy:      -647.590115  Gnorm:      0.000602  CPU:   36.253
  ** Hessian has required structure
  Cycle:    327 Energy:      -647.590116  Gnorm:      0.000317  CPU:   36.363
  ** Hessian has required structure


  **** Optimisation achieved ****


  Final enthalpy =    -647.59011602 eV      
  Final Gnorm    =       0.00002827

  Components of enthalpy : 

--------------------------------------------------------------------------------
  Interatomic potentials     =         218.67083349 eV    
  Monopole - monopole (real) =        -501.83844787 eV    
  Monopole - monopole (recip)=        -491.31400988 eV    
  Monopole - monopole (total)=        -993.15245775 eV    
  Pressure*volume            =         126.89150824 eV    
--------------------------------------------------------------------------------
  Total lattice enthalpy     =        -647.59011602 eV    
--------------------------------------------------------------------------------
  Total lattice enthalpy     =          -62482.5469 kJ/(mole unit cells)
--------------------------------------------------------------------------------

  Final fractional coordinates of atoms :

--------------------------------------------------------------------------------
   No.  Atomic        x           y          z          Radius
        Label       (Frac)      (Frac)     (Frac)       (Angs) 
--------------------------------------------------------------------------------
     1  Al    c     0.114467    0.421610    0.268039    0.000000
     2  Al    c     0.439198    0.126650    0.239110    0.000000
     3  Al    c     0.048206    0.782432    0.978085    0.000000
     4  Al    c     0.941168    0.595286    0.515182    0.000000
     5  Al    c     0.278976    0.225495    0.497884    0.000000
     6  Al    c     0.419962    0.546891    0.021353    0.000000
     7  Al    c     0.607103    0.970676    0.538948    0.000000
     8  Al    c     0.774021    0.789001    0.766004    0.000000
     9  Mg    c     0.130788    0.392950    0.748902    0.000000
    10  Mg    c     0.439296    0.069636    0.792387    0.000000
    11  Mg    c     0.760090    0.203172    0.031910    0.000000
    12  Mg    c     0.781232    0.809917    0.278139    0.000000
    13  O     c     0.536598    0.378245    0.112792    0.000000
    14  O     c     0.091648    0.007340    0.162830    0.000000
    15  O     c     0.338948    0.775234    0.933972    0.000000
    16  O     c     0.548971    0.190083    0.419759    0.000000
    17  O     c     0.027576    0.284110    0.438626    0.000000
    18  O     c     0.326665    0.004478    0.602127    0.000000
    19  O     c     0.459242    0.577281    0.371274    0.000000
    20  O     c     0.025044    0.723809    0.365381    0.000000
    21  O     c     0.698114    0.055443    0.184912    0.000000
    22  O     c     0.187897    0.577596    0.132887    0.000000
    23  O     c     0.868770    0.921087    0.598953    0.000000
    24  O     c     0.149544    0.086046    0.879958    0.000000
    25  O     c     0.830793    0.249808    0.862182    0.000000
    26  O     c     0.437245    0.618745    0.662645    0.000000
    27  O     c     0.690014    0.653180    0.913708    0.000000
    28  O     c     0.859535    0.475147    0.665057    0.000000
--------------------------------------------------------------------------------

  Final Cartesian lattice vectors (Angstroms) :

        4.947713   -2.696460    0.085705
       -0.420875    4.630977   -1.042520
       -1.203961   -1.511433    9.824303


  Final cell parameters and derivatives :

--------------------------------------------------------------------------------
       a            5.635433 Angstrom     dE/de1(xx)     0.000145 eV/strain
       b            4.765494 Angstrom     dE/de2(yy)    -0.000068 eV/strain
       c           10.012536 Angstrom     dE/de3(zz)     0.000220 eV/strain
       alpha      110.531659 Degrees      dE/de4(yz)     0.000485 eV/strain
       beta        91.055441 Degrees      dE/de5(xz)     0.000351 eV/strain
       gamma      123.082325 Degrees      dE/de6(xy)     0.000095 eV/strain
--------------------------------------------------------------------------------

  Primitive cell volume =           203.304179 Angs**3

  Density of cell =      4.648181 g/cm**3

  Non-primitive cell volume =           203.304179 Angs**3


  Final internal derivatives :

--------------------------------------------------------------------------------
   No.  Atomic          a             b             c           Radius
        Label          (eV)          (eV)          (eV)        (eV/Angs)
--------------------------------------------------------------------------------
      1 Al    c       0.000000      0.000000      0.000000      0.000000
      2 Al    c      -0.000196      0.000007      0.000095      0.000000
      3 Al    c      -0.000007      0.000177     -0.000689      0.000000
      4 Al    c      -0.000055     -0.000078     -0.000092      0.000000
      5 Al    c       0.000022      0.000098     -0.000107      0.000000
      6 Al    c       0.000105      0.000152     -0.000142      0.000000
      7 Al    c       0.000056     -0.000001      0.000147      0.000000
      8 Al    c       0.000054     -0.000189      0.000209      0.000000
      9 Mg    c      -0.000027      0.000101     -0.000024      0.000000
     10 Mg    c      -0.000029      0.000047     -0.000289      0.000000
     11 Mg    c      -0.000089     -0.000073     -0.001175      0.000000
     12 Mg    c       0.000123     -0.000045      0.000067      0.000000
     13 O     c      -0.000273      0.000138     -0.000016      0.000000
     14 O     c      -0.000037      0.000368      0.000499      0.000000
     15 O     c      -0.000149      0.000049      0.000301      0.000000
     16 O     c      -0.000174      0.000177      0.000207      0.000000
     17 O     c       0.000050     -0.000078     -0.000008      0.000000
     18 O     c      -0.000016     -0.000140      0.000342      0.000000
     19 O     c       0.000085     -0.000003      0.000169      0.000000
     20 O     c       0.000014     -0.000152      0.000008      0.000000
     21 O     c      -0.000098      0.000038      0.000142      0.000000
     22 O     c       0.000633     -0.000319      0.000610      0.000000
     23 O     c      -0.000036      0.000006     -0.000024      0.000000
     24 O     c      -0.000004      0.000343     -0.001035      0.000000
     25 O     c      -0.000053     -0.000197      0.000178      0.000000
     26 O     c       0.000071     -0.000050     -0.000114      0.000000
     27 O     c      -0.000070     -0.000159      0.000438      0.000000
     28 O     c      -0.000100      0.000039     -0.000111      0.000000
--------------------------------------------------------------------------------
  Maximum abs         0.000633      0.000368      0.001175      0.000000
--------------------------------------------------------------------------------


  Time to end of optimisation =      36.4737 seconds


  Peak dynamic memory used =       2.03 MB 


  Timing analysis for GULP :

--------------------------------------------------------------------------------
  Task / Subroutine                                          Time (Seconds)
--------------------------------------------------------------------------------
  Calculation of reciprocal space energy and derivatives          0.9654
  Calculation of real space energy and derivatives               35.2806
  Calculation and manipulation of Hessian matrix                  0.1436
  Global summation overhead                                       0.0021
--------------------------------------------------------------------------------
  Total CPU time                                                 36.4738
--------------------------------------------------------------------------------


  Job Finished at 16:03.14 11th June       2024                               

