********************************************************************************
*                       GENERAL UTILITY LATTICE PROGRAM                        *
*                                 Julian Gale                                  *
*                       Curtin Institute for Computation                       *
*                    School of Molecular and Life Sciences                     *
*                    Curtin University, Western Australia                      *
********************************************************************************
* Version = 6.0.0 * Last modified =  12th July 2021                            *
********************************************************************************
*  optimise     - perform optimisation run                                     *
*  conp         - constant pressure calculation                                *
*  nosymmetry   - turn off symmetry after initial structure generation         *
*  conjugate    - use conjugate gradients minimiser                            *
********************************************************************************

  Job Started  at 16:05.09 11th June       2024                               

  Number of CPUs =     1


  Total number of configurations input =      1

********************************************************************************
*  Input for Configuration =   1                                               *
********************************************************************************

  Formula = Al8Mg4O16                                                   

  Number of irreducible atoms/shells =      28


  Total number atoms/shells =      28

  Dimensionality = 3               :  Bulk   



  Cartesian lattice vectors (Angstroms) :

        5.690876   -0.289323    0.002017
        0.124640    5.973415   -1.078047
        0.120085   -0.106799    6.135629

  Cell parameters (Angstroms/Degrees):

  a =       5.6982    alpha = 101.1995
  b =       6.0712    beta  =  88.8095
  c =       6.1377    gamma =  91.6914

  Initial cell volume =         208.176407 Angs**3

  Temperature of configuration =   0.00     K 

  Pressure of configuration =       100.000 GPa 

  Fractional coordinates of asymmetric unit :

--------------------------------------------------------------------------------
   No.  Atomic       x           y          z         Charge      Occupancy
        Label      (Frac)      (Frac)     (Frac)        (e)         (Frac)  
--------------------------------------------------------------------------------
      1 Al    c    0.294589    0.049122    0.047752     3.00000    1.000000    
      2 Al    c    0.565730 *  0.349611 *  0.009702 *   3.00000    1.000000    
      3 Al    c    0.635090 *  0.000148 *  0.830356 *   3.00000    1.000000    
      4 Al    c    0.085287 *  0.266776 *  0.025705 *   3.00000    1.000000    
      5 Al    c    0.756014 *  0.324571 *  0.460499 *   3.00000    1.000000    
      6 Al    c    0.834181 *  0.834181 *  0.834181 *   3.00000    1.000000    
      7 Al    c    0.242880 *  0.698664 *  0.474022 *   3.00000    1.000000    
      8 Al    c    0.175371 *  0.732547 *  0.703127 *   3.00000    1.000000    
      9 Mg    c    0.305805 *  0.297956 *  0.453269 *   2.00000    1.000000    
     10 Mg    c    0.470559 *  0.044830 *  0.436341 *   2.00000    1.000000    
     11 Mg    c    0.029958 *  0.019113 *  0.446545 *   2.00000    1.000000    
     12 Mg    c    0.828022 *  0.576565 *  0.108512 *   2.00000    1.000000    
     13 O     c    0.132843 *  0.074522 *  0.754050 *  -2.00000    1.000000    
     14 O     c    0.245417 *  0.022500 *  0.351828 *  -2.00000    1.000000    
     15 O     c    0.071762 *  0.285046 *  0.322466 *  -2.00000    1.000000    
     16 O     c    0.701550 *  0.449615 *  0.223686 *  -2.00000    1.000000    
     17 O     c    0.512983 *  0.104855 *  0.114126 *  -2.00000    1.000000    
     18 O     c    0.674283 *  0.040350 *  0.529372 *  -2.00000    1.000000    
     19 O     c    0.523125 *  0.303639 *  0.561066 *  -2.00000    1.000000    
     20 O     c    0.207288 *  0.436818 *  0.667433 *  -2.00000    1.000000    
     21 O     c    0.762442 *  0.280820 *  0.772766 *  -2.00000    1.000000    
     22 O     c    0.349501 *  0.311699 *  0.092001 *  -2.00000    1.000000    
     23 O     c    0.403267 *  0.830272 *  0.619855 *  -2.00000    1.000000    
     24 O     c    0.401366 *  0.831836 *  0.198107 *  -2.00000    1.000000    
     25 O     c    0.529418 *  0.519483 *  0.607011 *  -2.00000    1.000000    
     26 O     c    0.832730 *  0.844679 *  0.410143 *  -2.00000    1.000000    
     27 O     c    0.397516 *  0.554293 *  0.750339 *  -2.00000    1.000000    
     28 O     c    0.260218 *  0.709255 *  0.047895 *  -2.00000    1.000000    
--------------------------------------------------------------------------------



********************************************************************************
*  General input information                                                   *
********************************************************************************

  Species output for all configurations : 

--------------------------------------------------------------------------------
  Species    Type    Atomic    Atomic    Charge       Radii (Angs)     Library
                     Number     Mass       (e)     Cova   Ionic  VDW   Symbol
--------------------------------------------------------------------------------
    Mg       Core       12      24.31   2.000000   1.100  0.000  1.640          
    Al       Core       13      26.98   3.000000   1.350  0.000  2.050          
    O        Core        8      16.00  -2.000000   0.730  0.000  1.360          
--------------------------------------------------------------------------------


  Lattice summation method               =    Ewald          (3-D)
                                         =    Parry          (2-D)
                                         =    Saunders et al (1-D)
  Accuracy factor for lattice sums       =   12.000


  Analytic derivatives to be used

  Time limit = Infinity

  Maximum range for interatomic potentials =    100000.000000 Angstroms

  General interatomic potentials :

--------------------------------------------------------------------------------
Atom  Types   Potential      Parameter       Value         Units   Cutoffs(Ang)
  1     2                                                            Min /  Max 
--------------------------------------------------------------------------------
O    c Mg   c Lennard       Lennard-Jones A  1.5000000    eV*Ang^m  0.000  6.000
                            Lennard-Jones B  0.0000000    eV*Ang^n  
                            Exponent m        12          None
                            Exponent n         6          None
--------------------------------------------------------------------------------
O    c Al   c Lennard       Lennard-Jones A  1.5000000    eV*Ang^m  0.000  6.000
                            Lennard-Jones B  0.0000000    eV*Ang^n  
                            Exponent m        12          None
                            Exponent n         6          None
--------------------------------------------------------------------------------
O    c O    c Lennard       Lennard-Jones A  1.5000000    eV*Ang^m  0.000  6.000
                            Lennard-Jones B  0.0000000    eV*Ang^n  
                            Exponent m        12          None
                            Exponent n         6          None
--------------------------------------------------------------------------------
Mg   c Mg   c Lennard       Lennard-Jones A  1.5000000    eV*Ang^m  0.000  6.000
                            Lennard-Jones B  0.0000000    eV*Ang^n  
                            Exponent m        12          None
                            Exponent n         6          None
--------------------------------------------------------------------------------
Mg   c Al   c Lennard       Lennard-Jones A  1.5000000    eV*Ang^m  0.000  6.000
                            Lennard-Jones B  0.0000000    eV*Ang^n  
                            Exponent m        12          None
                            Exponent n         6          None
--------------------------------------------------------------------------------
Al   c Al   c Lennard       Lennard-Jones A  1.5000000    eV*Ang^m  0.000  6.000
                            Lennard-Jones B  0.0000000    eV*Ang^n  
                            Exponent m        12          None
                            Exponent n         6          None
--------------------------------------------------------------------------------
O    c Mg   c Buckingham    Buckingham A     1428.5000    eV        0.000  7.000
                            Buckingham rho  0.29450000    Ang       
                            Buckingham C     0.0000000    eV*Ang^6  
--------------------------------------------------------------------------------
O    c Al   c Buckingham    Buckingham A     1114.9000    eV        0.000  7.000
                            Buckingham rho  0.31180000    Ang       
                            Buckingham C     0.0000000    eV*Ang^6  
--------------------------------------------------------------------------------
O    c O    c Buckingham    Buckingham A     2023.8000    eV        0.000  7.000
                            Buckingham rho  0.26740000    Ang       
                            Buckingham C     0.0000000    eV*Ang^6  
--------------------------------------------------------------------------------

********************************************************************************
*  Output for configuration   1                                                *
********************************************************************************


  Components of enthalpy : 

--------------------------------------------------------------------------------
  Interatomic potentials     =         388.89915963 eV    
  Monopole - monopole (real) =        -289.98400910 eV    
  Monopole - monopole (recip)=        -460.96741751 eV    
  Monopole - monopole (total)=        -750.95142661 eV    
  Pressure*volume            =         129.93249045 eV    
--------------------------------------------------------------------------------
  Total lattice enthalpy     =        -232.11977654 eV    
--------------------------------------------------------------------------------
  Total lattice enthalpy     =          -22396.0102 kJ/(mole unit cells)
--------------------------------------------------------------------------------


  Number of variables =       87

  Maximum number of calculations  =           850
  Maximum Hessian update interval =            10
  Maximum step size               =   1.000000000
  Maximum parameter tolerance     =   0.000010000
  Maximum function  tolerance     =   0.000010000
  Maximum gradient  tolerance     =   0.001000000
  Maximum gradient  component     =   0.010000000

  Cell parameters to be optimised using strains

  Conjugate gradient optimiser to be used

  Lower half triangular hessian to be used

  Minimiser to switch to RFO
  When gradient norm is less than     0.010000

  Start of bulk optimisation :

  Cycle:      0 Energy:      -232.119777  Gnorm:     23.992309  CPU:    0.039
  Cycle:      1 Energy:      -452.615100  Gnorm:     11.516164  CPU:    0.143
  Cycle:      2 Energy:      -545.847701  Gnorm:      4.228674  CPU:    0.198
  Cycle:      3 Energy:      -580.573544  Gnorm:      3.162525  CPU:    0.260
  Cycle:      4 Energy:      -592.801893  Gnorm:      2.402906  CPU:    0.327
  Cycle:      5 Energy:      -603.615463  Gnorm:      1.723698  CPU:    0.389
  Cycle:      6 Energy:      -608.033662  Gnorm:      1.452188  CPU:    0.456
  Cycle:      7 Energy:      -611.440646  Gnorm:      1.201201  CPU:    0.541
  Cycle:      8 Energy:      -613.969283  Gnorm:      1.095343  CPU:    0.617
  Cycle:      9 Energy:      -616.899855  Gnorm:      1.076971  CPU:    0.680
  Cycle:     10 Energy:      -618.448425  Gnorm:      0.791124  CPU:    0.737
  Cycle:     11 Energy:      -620.334815  Gnorm:      1.022140  CPU:    0.801
  Cycle:     12 Energy:      -624.103227  Gnorm:      1.156325  CPU:    0.868
  Cycle:     13 Energy:      -627.226751  Gnorm:      0.909035  CPU:    0.920
  Cycle:     14 Energy:      -629.055594  Gnorm:      0.828741  CPU:    0.988
  Cycle:     15 Energy:      -630.276381  Gnorm:      0.641716  CPU:    1.040
  Cycle:     16 Energy:      -631.295758  Gnorm:      0.572144  CPU:    1.104
  Cycle:     17 Energy:      -632.014927  Gnorm:      0.478671  CPU:    1.156
  Cycle:     18 Energy:      -632.546304  Gnorm:      0.434824  CPU:    1.220
  Cycle:     19 Energy:      -632.982975  Gnorm:      0.384922  CPU:    1.284
  Cycle:     20 Energy:      -633.182623  Gnorm:      0.313245  CPU:    1.337
  Cycle:     21 Energy:      -633.481086  Gnorm:      0.307971  CPU:    1.400
  Cycle:     22 Energy:      -633.914690  Gnorm:      0.437390  CPU:    1.464
  Cycle:     23 Energy:      -634.490651  Gnorm:      0.484161  CPU:    1.528
  Cycle:     24 Energy:      -635.156032  Gnorm:      0.501485  CPU:    1.580
  Cycle:     25 Energy:      -635.777772  Gnorm:      0.581193  CPU:    1.632
  Cycle:     26 Energy:      -636.324662  Gnorm:      0.491840  CPU:    1.684
  Cycle:     27 Energy:      -636.998018  Gnorm:      0.546663  CPU:    1.748
  Cycle:     28 Energy:      -637.591635  Gnorm:      0.540090  CPU:    1.801
  Cycle:     29 Energy:      -638.171211  Gnorm:      0.530119  CPU:    1.865
  Cycle:     30 Energy:      -638.504830  Gnorm:      0.419911  CPU:    1.917
  Cycle:     31 Energy:      -638.902864  Gnorm:      0.450276  CPU:    1.982
  Cycle:     32 Energy:      -639.298354  Gnorm:      0.433180  CPU:    2.034
  Cycle:     33 Energy:      -640.478020  Gnorm:      0.636362  CPU:    2.098
  Cycle:     34 Energy:      -641.416006  Gnorm:      0.655954  CPU:    2.150
  Cycle:     35 Energy:      -642.065208  Gnorm:      0.503338  CPU:    2.202
  Cycle:     36 Energy:      -642.779865  Gnorm:      0.593979  CPU:    2.266
  Cycle:     37 Energy:      -643.232724  Gnorm:      0.414057  CPU:    2.319
  Cycle:     38 Energy:      -643.640112  Gnorm:      0.442498  CPU:    2.383
  Cycle:     39 Energy:      -643.965902  Gnorm:      0.322306  CPU:    2.435
  Cycle:     40 Energy:      -644.092026  Gnorm:      0.267514  CPU:    2.488
  Cycle:     41 Energy:      -644.220435  Gnorm:      0.215530  CPU:    2.553
  Cycle:     42 Energy:      -644.319214  Gnorm:      0.219681  CPU:    2.617
  Cycle:     43 Energy:      -644.389923  Gnorm:      0.186426  CPU:    2.669
  Cycle:     44 Energy:      -644.515408  Gnorm:      0.203852  CPU:    2.749
  Cycle:     45 Energy:      -644.616407  Gnorm:      0.137061  CPU:    2.824
  Cycle:     46 Energy:      -644.664624  Gnorm:      0.174860  CPU:    2.916
  Cycle:     47 Energy:      -644.706661  Gnorm:      0.142347  CPU:    2.991
  Cycle:     48 Energy:      -644.752036  Gnorm:      0.137526  CPU:    3.083
  Cycle:     49 Energy:      -644.798577  Gnorm:      0.153087  CPU:    3.176
  Cycle:     50 Energy:      -644.819947  Gnorm:      0.104356  CPU:    3.252
  Cycle:     51 Energy:      -644.838848  Gnorm:      0.083842  CPU:    3.349
  Cycle:     52 Energy:      -644.861093  Gnorm:      0.102795  CPU:    3.446
  Cycle:     53 Energy:      -644.878536  Gnorm:      0.092593  CPU:    3.523
  Cycle:     54 Energy:      -644.906519  Gnorm:      0.099219  CPU:    3.616
  Cycle:     55 Energy:      -644.942864  Gnorm:      0.126142  CPU:    3.715
  Cycle:     56 Energy:      -644.977456  Gnorm:      0.127951  CPU:    3.793
  Cycle:     57 Energy:      -645.010169  Gnorm:      0.123200  CPU:    3.876
  Cycle:     58 Energy:      -645.039620  Gnorm:      0.127793  CPU:    3.955
  Cycle:     59 Energy:      -645.068111  Gnorm:      0.111071  CPU:    4.037
  Cycle:     60 Energy:      -645.083863  Gnorm:      0.092994  CPU:    4.115
  Cycle:     61 Energy:      -645.101107  Gnorm:      0.078200  CPU:    4.213
  Cycle:     62 Energy:      -645.112724  Gnorm:      0.081484  CPU:    4.305
  Cycle:     63 Energy:      -645.124103  Gnorm:      0.071531  CPU:    4.384
  Cycle:     64 Energy:      -645.138699  Gnorm:      0.047666  CPU:    4.476
  Cycle:     65 Energy:      -645.145163  Gnorm:      0.045543  CPU:    4.556
  Cycle:     66 Energy:      -645.152278  Gnorm:      0.050239  CPU:    4.649
  Cycle:     67 Energy:      -645.157775  Gnorm:      0.056080  CPU:    4.729
  Cycle:     68 Energy:      -645.163240  Gnorm:      0.054754  CPU:    4.806
  Cycle:     69 Energy:      -645.173432  Gnorm:      0.084019  CPU:    4.909
  Cycle:     70 Energy:      -645.179458  Gnorm:      0.044871  CPU:    4.987
  Cycle:     71 Energy:      -645.183213  Gnorm:      0.042531  CPU:    5.067
  Cycle:     72 Energy:      -645.186647  Gnorm:      0.039643  CPU:    5.141
  Cycle:     73 Energy:      -645.189669  Gnorm:      0.037511  CPU:    5.221
  Cycle:     74 Energy:      -645.193345  Gnorm:      0.034265  CPU:    5.313
  Cycle:     75 Energy:      -645.198020  Gnorm:      0.042786  CPU:    5.388
  Cycle:     76 Energy:      -645.203894  Gnorm:      0.039328  CPU:    5.463
  Cycle:     77 Energy:      -645.209006  Gnorm:      0.041824  CPU:    5.550
  Cycle:     78 Energy:      -645.212036  Gnorm:      0.046943  CPU:    5.625
  Cycle:     79 Energy:      -645.216635  Gnorm:      0.047419  CPU:    5.700
  Cycle:     80 Energy:      -645.220067  Gnorm:      0.036477  CPU:    5.779
  Cycle:     81 Energy:      -645.222095  Gnorm:      0.035779  CPU:    5.858
  Cycle:     82 Energy:      -645.224828  Gnorm:      0.029155  CPU:    5.933
  Cycle:     83 Energy:      -645.227607  Gnorm:      0.031304  CPU:    6.009
  Cycle:     84 Energy:      -645.230076  Gnorm:      0.026388  CPU:    6.087
  Cycle:     85 Energy:      -645.231512  Gnorm:      0.025586  CPU:    6.164
  Cycle:     86 Energy:      -645.232820  Gnorm:      0.022514  CPU:    6.241
  Cycle:     87 Energy:      -645.234360  Gnorm:      0.024811  CPU:    6.318
  Cycle:     88 Energy:      -645.235730  Gnorm:      0.028892  CPU:    6.395
  Cycle:     89 Energy:      -645.237159  Gnorm:      0.031309  CPU:    6.473
  Cycle:     90 Energy:      -645.238383  Gnorm:      0.025603  CPU:    6.550
  Cycle:     91 Energy:      -645.239440  Gnorm:      0.021965  CPU:    6.627
  Cycle:     92 Energy:      -645.240600  Gnorm:      0.018979  CPU:    6.704
  Cycle:     93 Energy:      -645.241511  Gnorm:      0.020834  CPU:    6.780
  Cycle:     94 Energy:      -645.242428  Gnorm:      0.020902  CPU:    6.857
  Cycle:     95 Energy:      -645.243866  Gnorm:      0.022977  CPU:    6.933
  Cycle:     96 Energy:      -645.245262  Gnorm:      0.020232  CPU:    7.011
  Cycle:     97 Energy:      -645.246501  Gnorm:      0.023564  CPU:    7.089
  Cycle:     98 Energy:      -645.247335  Gnorm:      0.022929  CPU:    7.165
  Cycle:     99 Energy:      -645.248650  Gnorm:      0.027082  CPU:    7.242
  Cycle:    100 Energy:      -645.249774  Gnorm:      0.020148  CPU:    7.319
  Cycle:    101 Energy:      -645.250413  Gnorm:      0.020477  CPU:    7.396
  Cycle:    102 Energy:      -645.251291  Gnorm:      0.016939  CPU:    7.472
  Cycle:    103 Energy:      -645.252201  Gnorm:      0.018614  CPU:    7.548
  Cycle:    104 Energy:      -645.252993  Gnorm:      0.016768  CPU:    7.627
  Cycle:    105 Energy:      -645.253509  Gnorm:      0.014523  CPU:    7.711
  Cycle:    106 Energy:      -645.254021  Gnorm:      0.013031  CPU:    7.785
  Cycle:    107 Energy:      -645.254575  Gnorm:      0.015006  CPU:    7.865
  Cycle:    108 Energy:      -645.255049  Gnorm:      0.017404  CPU:    7.943
  Cycle:    109 Energy:      -645.255594  Gnorm:      0.019048  CPU:    8.023
  Cycle:    110 Energy:      -645.256086  Gnorm:      0.015965  CPU:    8.099
  Cycle:    111 Energy:      -645.256475  Gnorm:      0.013607  CPU:    8.179
  Cycle:    112 Energy:      -645.256917  Gnorm:      0.011525  CPU:    8.255
  Cycle:    113 Energy:      -645.257322  Gnorm:      0.012460  CPU:    8.356
  Cycle:    114 Energy:      -645.257697  Gnorm:      0.014136  CPU:    8.431
  Cycle:    115 Energy:      -645.258226  Gnorm:      0.014915  CPU:    8.506
  Cycle:    116 Energy:      -645.258773  Gnorm:      0.012970  CPU:    8.580
  Cycle:    117 Energy:      -645.259274  Gnorm:      0.014737  CPU:    8.655
  Cycle:    118 Energy:      -645.259610  Gnorm:      0.014761  CPU:    8.730
  Cycle:    119 Energy:      -645.260160  Gnorm:      0.018061  CPU:    8.805
  Cycle:    120 Energy:      -645.260648  Gnorm:      0.013387  CPU:    8.880
  Cycle:    121 Energy:      -645.260922  Gnorm:      0.013269  CPU:    8.955
  Cycle:    122 Energy:      -645.261313  Gnorm:      0.011433  CPU:    9.034
  Cycle:    123 Energy:      -645.261726  Gnorm:      0.012663  CPU:    9.115
  Cycle:    124 Energy:      -645.262084  Gnorm:      0.011544  CPU:    9.191
  Cycle:    125 Energy:      -645.262331  Gnorm:      0.009848  CPU:    9.269
  ** Hessian has required structure
  Cycle:    126 Energy:      -645.266339  Gnorm:      0.007588  CPU:    9.519
  ** Hessian has required structure
  Cycle:    127 Energy:      -645.270359  Gnorm:      0.004480  CPU:    9.648
  ** Hessian has required structure
  Cycle:    128 Energy:      -645.271777  Gnorm:      0.001479  CPU:    9.761
  ** Hessian has required structure
  Cycle:    129 Energy:      -645.271794  Gnorm:      0.000219  CPU:    9.855
  ** Hessian has required structure


  **** Optimisation achieved ****


  Final enthalpy =    -645.27179507 eV      
  Final Gnorm    =       0.00004561

  Components of enthalpy : 

--------------------------------------------------------------------------------
  Interatomic potentials     =         225.39946528 eV    
  Monopole - monopole (real) =        -512.73961125 eV    
  Monopole - monopole (recip)=        -487.66593248 eV    
  Monopole - monopole (total)=       -1000.40554373 eV    
  Pressure*volume            =         129.73428338 eV    
--------------------------------------------------------------------------------
  Total lattice enthalpy     =        -645.27179507 eV    
--------------------------------------------------------------------------------
  Total lattice enthalpy     =          -62258.8643 kJ/(mole unit cells)
--------------------------------------------------------------------------------

  Final fractional coordinates of atoms :

--------------------------------------------------------------------------------
   No.  Atomic        x           y          z          Radius
        Label       (Frac)      (Frac)     (Frac)       (Angs) 
--------------------------------------------------------------------------------
     1  Al    c     0.294589    0.049122    0.047752    0.000000
     2  Al    c     0.619038    0.440337    0.901372    0.000000
     3  Al    c     0.757878    0.112503    0.745072    0.000000
     4  Al    c     0.105657    0.392218    0.017163    0.000000
     5  Al    c     0.046996    0.431533    0.499410    0.000000
     6  Al    c     0.940679    0.775642    0.656408    0.000000
     7  Al    c     0.436321    0.804555    0.394171    0.000000
     8  Al    c     0.434777    0.749477    0.887180    0.000000
     9  Mg    c     0.544107    0.438120    0.382967    0.000000
    10  Mg    c     0.847102    0.097968    0.261926    0.000000
    11  Mg    c     0.293988    0.129590    0.561010    0.000000
    12  Mg    c     0.908160    0.742715    0.171354    0.000000
    13  O     c     0.028285    0.150513    0.958026    0.000000
    14  O     c     0.203983    0.944492    0.296089    0.000000
    15  O     c     0.182345    0.295303    0.312912    0.000000
    16  O     c     0.864468    0.465177    0.183125    0.000000
    17  O     c     0.547220    0.200183    0.951127    0.000000
    18  O     c     0.941846    0.001679    0.588945    0.000000
    19  O     c     0.666994    0.220758    0.470756    0.000000
    20  O     c     0.334373    0.397034    0.705221    0.000000
    21  O     c     0.896762    0.417437    0.760394    0.000000
    22  O     c     0.372813    0.554774    0.082966    0.000000
    23  O     c     0.494089    0.930107    0.677589    0.000000
    24  O     c     0.587306    0.903283    0.133927    0.000000
    25  O     c     0.690308    0.689099    0.439219    0.000000
    26  O     c     0.171988    0.661569    0.516811    0.000000
    27  O     c     0.709953    0.676350    0.853698    0.000000
    28  O     c     0.152269    0.821231    0.915318    0.000000
--------------------------------------------------------------------------------

  Final Cartesian lattice vectors (Angstroms) :

        5.116366   -0.836853   -0.290225
       -0.342011    7.332518   -0.455556
       -0.170017    0.399109    5.568565


  Final cell parameters and derivatives :

--------------------------------------------------------------------------------
       a            5.192471 Angstrom     dE/de1(xx)    -0.000029 eV/strain
       b            7.354612 Angstrom     dE/de2(yy)     0.000071 eV/strain
       c            5.585437 Angstrom     dE/de3(zz)    -0.000511 eV/strain
       alpha       89.375369 Degrees      dE/de4(yz)     0.001355 eV/strain
       beta        95.579918 Degrees      dE/de5(xz)    -0.001147 eV/strain
       gamma      101.714886 Degrees      dE/de6(xy)    -0.000224 eV/strain
--------------------------------------------------------------------------------

  Primitive cell volume =           207.858842 Angs**3

  Density of cell =      4.546329 g/cm**3

  Non-primitive cell volume =           207.858842 Angs**3


  Final internal derivatives :

--------------------------------------------------------------------------------
   No.  Atomic          a             b             c           Radius
        Label          (eV)          (eV)          (eV)        (eV/Angs)
--------------------------------------------------------------------------------
      1 Al    c       0.000000      0.000000      0.000000      0.000000
      2 Al    c      -0.000043     -0.000456     -0.000015      0.000000
      3 Al    c      -0.001277      0.000739      0.000045      0.000000
      4 Al    c       0.000137     -0.000065      0.000091      0.000000
      5 Al    c      -0.000058     -0.000241     -0.000107      0.000000
      6 Al    c       0.000019     -0.000170      0.000066      0.000000
      7 Al    c       0.000075     -0.000435     -0.000084      0.000000
      8 Al    c      -0.000079      0.000612      0.000171      0.000000
      9 Mg    c      -0.000639      0.000492      0.000168      0.000000
     10 Mg    c       0.000629     -0.000513     -0.000630      0.000000
     11 Mg    c      -0.000171     -0.000460     -0.000017      0.000000
     12 Mg    c       0.000038     -0.000182      0.000295      0.000000
     13 O     c      -0.000366      0.000696     -0.000862      0.000000
     14 O     c       0.000253      0.000286      0.000021      0.000000
     15 O     c      -0.000117      0.000375      0.000189      0.000000
     16 O     c       0.000115      0.000581     -0.000481      0.000000
     17 O     c      -0.000156     -0.000748      0.000516      0.000000
     18 O     c       0.000363     -0.000553      0.000992      0.000000
     19 O     c       0.000287      0.000278      0.000481      0.000000
     20 O     c      -0.000075      0.000247      0.000038      0.000000
     21 O     c       0.000214     -0.000408      0.000205      0.000000
     22 O     c      -0.000132     -0.000091     -0.000254      0.000000
     23 O     c       0.000310     -0.000415     -0.000279      0.000000
     24 O     c       0.000447     -0.000313     -0.000229      0.000000
     25 O     c       0.000241     -0.000240      0.000092      0.000000
     26 O     c      -0.000219     -0.000041     -0.000385      0.000000
     27 O     c      -0.000019      0.000624      0.000028      0.000000
     28 O     c      -0.000303     -0.000367      0.000230      0.000000
--------------------------------------------------------------------------------
  Maximum abs         0.001277      0.000748      0.000992      0.000000
--------------------------------------------------------------------------------


  Time to end of optimisation =       9.9553 seconds


  Peak dynamic memory used =       2.03 MB 


  Timing analysis for GULP :

--------------------------------------------------------------------------------
  Task / Subroutine                                          Time (Seconds)
--------------------------------------------------------------------------------
  Calculation of reciprocal space energy and derivatives          0.4115
  Calculation of real space energy and derivatives                9.4039
  Calculation and manipulation of Hessian matrix                  0.0957
  Global summation overhead                                       0.0009
--------------------------------------------------------------------------------
  Total CPU time                                                  9.9553
--------------------------------------------------------------------------------


  Job Finished at 16:05.18 11th June       2024                               

