********************************************************************************
*                       GENERAL UTILITY LATTICE PROGRAM                        *
*                                 Julian Gale                                  *
*                       Curtin Institute for Computation                       *
*                    School of Molecular and Life Sciences                     *
*                    Curtin University, Western Australia                      *
********************************************************************************
* Version = 6.0.0 * Last modified =  12th July 2021                            *
********************************************************************************
*  optimise     - perform optimisation run                                     *
*  conp         - constant pressure calculation                                *
*  nosymmetry   - turn off symmetry after initial structure generation         *
*  conjugate    - use conjugate gradients minimiser                            *
********************************************************************************

  Job Started  at 15:57.12 11th June       2024                               

  Number of CPUs =     1


  Total number of configurations input =      1

********************************************************************************
*  Input for Configuration =   1                                               *
********************************************************************************

  Formula = Al8Mg4O16                                                   

  Number of irreducible atoms/shells =      28


  Total number atoms/shells =      28

  Dimensionality = 3               :  Bulk   



  Cartesian lattice vectors (Angstroms) :

        8.120202   -1.897490    0.247131
       -0.177753    5.326177    0.317215
        0.391199    0.095298    4.874505

  Cell parameters (Angstroms/Degrees):

  a =       8.3426    alpha =  85.6417
  b =       5.3386    beta  =  84.0915
  c =       4.8911    gamma = 104.9256

  Initial cell volume =         208.176407 Angs**3

  Temperature of configuration =   0.00     K 

  Pressure of configuration =       100.000 GPa 

  Fractional coordinates of asymmetric unit :

--------------------------------------------------------------------------------
   No.  Atomic       x           y          z         Charge      Occupancy
        Label      (Frac)      (Frac)     (Frac)        (e)         (Frac)  
--------------------------------------------------------------------------------
      1 Al    c    0.363459    0.069232    0.281646     3.00000    1.000000    
      2 Al    c    0.504964 *  0.746250 *  0.534148 *   3.00000    1.000000    
      3 Al    c    0.128906 *  0.027748 *  0.005608 *   3.00000    1.000000    
      4 Al    c    0.270410 *  0.633742 *  0.187086 *   3.00000    1.000000    
      5 Al    c    0.749998 *  0.704634 *  0.871342 *   3.00000    1.000000    
      6 Al    c    0.009920 *  0.594944 *  0.387261 *   3.00000    1.000000    
      7 Al    c    0.896815 *  0.136594 *  0.873612 *   3.00000    1.000000    
      8 Al    c    0.683744 *  0.003564 *  0.353006 *   3.00000    1.000000    
      9 Mg    c    0.146615 *  0.448924 *  0.842761 *   2.00000    1.000000    
     10 Mg    c    0.487254 *  0.254051 *  0.696995 *   2.00000    1.000000    
     11 Mg    c    0.767719 *  0.721036 *  0.308353 *   2.00000    1.000000    
     12 Mg    c    0.056617 *  0.153195 *  0.041932 *   2.00000    1.000000    
     13 O     c    0.452148 *  0.487343 *  0.346646 *  -2.00000    1.000000    
     14 O     c    0.063819 *  0.725103 *  0.068990 *  -2.00000    1.000000    
     15 O     c    0.261115 *  0.830537 *  0.498809 *  -2.00000    1.000000    
     16 O     c    0.034538 *  0.513382 *  0.470765 *  -2.00000    1.000000    
     17 O     c    0.599332 *  0.189591 *  0.068990 *  -2.00000    1.000000    
     18 O     c    0.570050 *  0.048895 *  0.470765 *  -2.00000    1.000000    
     19 O     c    0.212989 *  0.156321 *  0.649376 *  -2.00000    1.000000    
     20 O     c    0.372753 *  0.943461 *  0.040948 *  -2.00000    1.000000    
     21 O     c    0.420881 *  0.546652 *  0.890380 *  -2.00000    1.000000    
     22 O     c    0.181721 *  0.215631 *  0.122084 *  -2.00000    1.000000    
     23 O     c    0.968093 *  0.744824 *  0.071336 *  -2.00000    1.000000    
     24 O     c    0.041191 *  0.629368 *  0.839479 *  -2.00000    1.000000    
     25 O     c    0.844169 *  0.621790 *  0.593916 *  -2.00000    1.000000    
     26 O     c    0.637537 *  0.411923 *  0.065538 *  -2.00000    1.000000    
     27 O     c    0.025801 *  0.047109 *  0.592683 *  -2.00000    1.000000    
     28 O     c    0.739449 *  0.172826 *  0.630415 *  -2.00000    1.000000    
--------------------------------------------------------------------------------



********************************************************************************
*  General input information                                                   *
********************************************************************************

  Species output for all configurations : 

--------------------------------------------------------------------------------
  Species    Type    Atomic    Atomic    Charge       Radii (Angs)     Library
                     Number     Mass       (e)     Cova   Ionic  VDW   Symbol
--------------------------------------------------------------------------------
    Mg       Core       12      24.31   2.000000   1.100  0.000  1.640          
    Al       Core       13      26.98   3.000000   1.350  0.000  2.050          
    O        Core        8      16.00  -2.000000   0.730  0.000  1.360          
--------------------------------------------------------------------------------


  Lattice summation method               =    Ewald          (3-D)
                                         =    Parry          (2-D)
                                         =    Saunders et al (1-D)
  Accuracy factor for lattice sums       =   12.000


  Analytic derivatives to be used

  Time limit = Infinity

  Maximum range for interatomic potentials =    100000.000000 Angstroms

  General interatomic potentials :

--------------------------------------------------------------------------------
Atom  Types   Potential      Parameter       Value         Units   Cutoffs(Ang)
  1     2                                                            Min /  Max 
--------------------------------------------------------------------------------
O    c Mg   c Lennard       Lennard-Jones A  1.5000000    eV*Ang^m  0.000  6.000
                            Lennard-Jones B  0.0000000    eV*Ang^n  
                            Exponent m        12          None
                            Exponent n         6          None
--------------------------------------------------------------------------------
O    c Al   c Lennard       Lennard-Jones A  1.5000000    eV*Ang^m  0.000  6.000
                            Lennard-Jones B  0.0000000    eV*Ang^n  
                            Exponent m        12          None
                            Exponent n         6          None
--------------------------------------------------------------------------------
O    c O    c Lennard       Lennard-Jones A  1.5000000    eV*Ang^m  0.000  6.000
                            Lennard-Jones B  0.0000000    eV*Ang^n  
                            Exponent m        12          None
                            Exponent n         6          None
--------------------------------------------------------------------------------
Mg   c Mg   c Lennard       Lennard-Jones A  1.5000000    eV*Ang^m  0.000  6.000
                            Lennard-Jones B  0.0000000    eV*Ang^n  
                            Exponent m        12          None
                            Exponent n         6          None
--------------------------------------------------------------------------------
Mg   c Al   c Lennard       Lennard-Jones A  1.5000000    eV*Ang^m  0.000  6.000
                            Lennard-Jones B  0.0000000    eV*Ang^n  
                            Exponent m        12          None
                            Exponent n         6          None
--------------------------------------------------------------------------------
Al   c Al   c Lennard       Lennard-Jones A  1.5000000    eV*Ang^m  0.000  6.000
                            Lennard-Jones B  0.0000000    eV*Ang^n  
                            Exponent m        12          None
                            Exponent n         6          None
--------------------------------------------------------------------------------
O    c Mg   c Buckingham    Buckingham A     1428.5000    eV        0.000  7.000
                            Buckingham rho  0.29450000    Ang       
                            Buckingham C     0.0000000    eV*Ang^6  
--------------------------------------------------------------------------------
O    c Al   c Buckingham    Buckingham A     1114.9000    eV        0.000  7.000
                            Buckingham rho  0.31180000    Ang       
                            Buckingham C     0.0000000    eV*Ang^6  
--------------------------------------------------------------------------------
O    c O    c Buckingham    Buckingham A     2023.8000    eV        0.000  7.000
                            Buckingham rho  0.26740000    Ang       
                            Buckingham C     0.0000000    eV*Ang^6  
--------------------------------------------------------------------------------

********************************************************************************
*  Output for configuration   1                                                *
********************************************************************************


  Components of enthalpy : 

--------------------------------------------------------------------------------
  Interatomic potentials     =         780.98282687 eV    
  Monopole - monopole (real) =        -329.31716138 eV    
  Monopole - monopole (recip)=        -468.18960051 eV    
  Monopole - monopole (total)=        -797.50676189 eV    
  Pressure*volume            =         129.93249043 eV    
--------------------------------------------------------------------------------
  Total lattice enthalpy     =         113.40855541 eV    
--------------------------------------------------------------------------------
  Total lattice enthalpy     =           10942.1920 kJ/(mole unit cells)
--------------------------------------------------------------------------------


  Number of variables =       87

  Maximum number of calculations  =           850
  Maximum Hessian update interval =            10
  Maximum step size               =   1.000000000
  Maximum parameter tolerance     =   0.000010000
  Maximum function  tolerance     =   0.000010000
  Maximum gradient  tolerance     =   0.001000000
  Maximum gradient  component     =   0.010000000

  Cell parameters to be optimised using strains

  Conjugate gradient optimiser to be used

  Lower half triangular hessian to be used

  Minimiser to switch to RFO
  When gradient norm is less than     0.010000

  Start of bulk optimisation :

  Cycle:      0 Energy:       113.408555  Gnorm:    466.837552  CPU:    0.053
  Cycle:      1 Energy:      -267.412496  Gnorm:     30.352353  CPU:    0.179
  Cycle:      2 Energy:      -469.753670  Gnorm:     12.444907  CPU:    0.301
  Cycle:      3 Energy:      -532.338924  Gnorm:      6.008688  CPU:    0.393
  Cycle:      4 Energy:      -561.803741  Gnorm:      5.145302  CPU:    0.485
  Cycle:      5 Energy:      -582.863700  Gnorm:      3.061707  CPU:    0.573
  Cycle:      6 Energy:      -592.727410  Gnorm:      2.560806  CPU:    0.665
  Cycle:      7 Energy:      -598.978268  Gnorm:      2.415164  CPU:    0.752
  Cycle:      8 Energy:      -607.647988  Gnorm:      2.673658  CPU:    0.845
  Cycle:      9 Energy:      -614.288786  Gnorm:      2.110362  CPU:    0.933
  Cycle:     10 Energy:      -619.026282  Gnorm:      1.675734  CPU:    1.034
  Cycle:     11 Energy:      -622.597239  Gnorm:      1.335973  CPU:    1.121
  Cycle:     12 Energy:      -625.752089  Gnorm:      1.374170  CPU:    1.213
  Cycle:     13 Energy:      -628.184884  Gnorm:      1.003337  CPU:    1.284
  Cycle:     14 Energy:      -629.477926  Gnorm:      1.010437  CPU:    1.375
  Cycle:     15 Energy:      -631.379874  Gnorm:      0.999677  CPU:    1.462
  Cycle:     16 Energy:      -632.458615  Gnorm:      0.785297  CPU:    1.537
  Cycle:     17 Energy:      -633.748250  Gnorm:      0.903778  CPU:    1.623
  Cycle:     18 Energy:      -634.613605  Gnorm:      0.676126  CPU:    1.697
  Cycle:     19 Energy:      -635.605153  Gnorm:      0.664020  CPU:    1.783
  Cycle:     20 Energy:      -636.123109  Gnorm:      0.603196  CPU:    1.857
  Cycle:     21 Energy:      -636.633819  Gnorm:      0.525556  CPU:    1.942
  Cycle:     22 Energy:      -637.213575  Gnorm:      0.594824  CPU:    2.016
  Cycle:     23 Energy:      -637.870038  Gnorm:      0.760846  CPU:    2.065
  Cycle:     24 Energy:      -638.964735  Gnorm:      0.958181  CPU:    2.124
  Cycle:     25 Energy:      -640.342913  Gnorm:      0.900530  CPU:    2.177
  Cycle:     26 Energy:      -641.279672  Gnorm:      0.751945  CPU:    2.237
  Cycle:     27 Energy:      -642.610438  Gnorm:      0.681838  CPU:    2.327
  Cycle:     28 Energy:      -643.280321  Gnorm:      0.626811  CPU:    2.401
  Cycle:     29 Energy:      -643.785404  Gnorm:      0.536377  CPU:    2.471
  Cycle:     30 Energy:      -644.029235  Gnorm:      0.397852  CPU:    2.541
  Cycle:     31 Energy:      -644.278293  Gnorm:      0.388379  CPU:    2.627
  Cycle:     32 Energy:      -644.556113  Gnorm:      0.357146  CPU:    2.714
  Cycle:     33 Energy:      -644.835903  Gnorm:      0.410506  CPU:    2.800
  Cycle:     34 Energy:      -645.043374  Gnorm:      0.368896  CPU:    2.870
  Cycle:     35 Energy:      -645.275005  Gnorm:      0.323315  CPU:    2.956
  Cycle:     36 Energy:      -645.557988  Gnorm:      0.331425  CPU:    3.043
  Cycle:     37 Energy:      -645.822872  Gnorm:      0.345874  CPU:    3.114
  Cycle:     38 Energy:      -646.038730  Gnorm:      0.390738  CPU:    3.184
  Cycle:     39 Energy:      -646.199730  Gnorm:      0.335230  CPU:    3.255
  Cycle:     40 Energy:      -646.312470  Gnorm:      0.334980  CPU:    3.342
  Cycle:     41 Energy:      -646.552408  Gnorm:      0.311093  CPU:    3.429
  Cycle:     42 Energy:      -646.748015  Gnorm:      0.287973  CPU:    3.516
  Cycle:     43 Energy:      -646.892992  Gnorm:      0.330466  CPU:    3.587
  Cycle:     44 Energy:      -647.051403  Gnorm:      0.314824  CPU:    3.657
  Cycle:     45 Energy:      -647.229335  Gnorm:      0.281584  CPU:    3.744
  Cycle:     46 Energy:      -647.426189  Gnorm:      0.272971  CPU:    3.832
  Cycle:     47 Energy:      -647.618482  Gnorm:      0.324836  CPU:    3.919
  Cycle:     48 Energy:      -647.722667  Gnorm:      0.256645  CPU:    3.990
  Cycle:     49 Energy:      -647.823097  Gnorm:      0.199057  CPU:    4.077
  Cycle:     50 Energy:      -647.867182  Gnorm:      0.161304  CPU:    4.148
  Cycle:     51 Energy:      -647.908658  Gnorm:      0.184842  CPU:    4.235
  Cycle:     52 Energy:      -647.953946  Gnorm:      0.122472  CPU:    4.306
  Cycle:     53 Energy:      -647.984574  Gnorm:      0.100745  CPU:    4.393
  Cycle:     54 Energy:      -648.011291  Gnorm:      0.112723  CPU:    4.481
  Cycle:     55 Energy:      -648.033170  Gnorm:      0.109179  CPU:    4.552
  Cycle:     56 Energy:      -648.045948  Gnorm:      0.095840  CPU:    4.623
  Cycle:     57 Energy:      -648.073017  Gnorm:      0.096699  CPU:    4.710
  Cycle:     58 Energy:      -648.100379  Gnorm:      0.136178  CPU:    4.798
  Cycle:     59 Energy:      -648.119992  Gnorm:      0.113173  CPU:    4.869
  Cycle:     60 Energy:      -648.131421  Gnorm:      0.088041  CPU:    4.940
  Cycle:     61 Energy:      -648.141053  Gnorm:      0.064447  CPU:    5.027
  Cycle:     62 Energy:      -648.152364  Gnorm:      0.061317  CPU:    5.098
  Cycle:     63 Energy:      -648.158261  Gnorm:      0.069951  CPU:    5.169
  Cycle:     64 Energy:      -648.165330  Gnorm:      0.065618  CPU:    5.239
  Cycle:     65 Energy:      -648.174966  Gnorm:      0.067530  CPU:    5.326
  Cycle:     66 Energy:      -648.186461  Gnorm:      0.074039  CPU:    5.417
  Cycle:     67 Energy:      -648.208223  Gnorm:      0.093422  CPU:    5.504
  Cycle:     68 Energy:      -648.226976  Gnorm:      0.128809  CPU:    5.578
  Cycle:     69 Energy:      -648.251162  Gnorm:      0.144167  CPU:    5.649
  Cycle:     70 Energy:      -648.268431  Gnorm:      0.110589  CPU:    5.719
  Cycle:     71 Energy:      -648.287043  Gnorm:      0.094473  CPU:    5.810
  Cycle:     72 Energy:      -648.307262  Gnorm:      0.094381  CPU:    5.901
  Cycle:     73 Energy:      -648.323799  Gnorm:      0.096707  CPU:    5.972
  Cycle:     74 Energy:      -648.336115  Gnorm:      0.101643  CPU:    6.042
  Cycle:     75 Energy:      -648.356303  Gnorm:      0.087784  CPU:    6.133
  Cycle:     76 Energy:      -648.377413  Gnorm:      0.092575  CPU:    6.224
  Cycle:     77 Energy:      -648.398447  Gnorm:      0.103465  CPU:    6.294
  Cycle:     78 Energy:      -648.415022  Gnorm:      0.116120  CPU:    6.365
  Cycle:     79 Energy:      -648.434736  Gnorm:      0.114712  CPU:    6.456
  Cycle:     80 Energy:      -648.450742  Gnorm:      0.107244  CPU:    6.531
  Cycle:     81 Energy:      -648.466180  Gnorm:      0.101768  CPU:    6.618
  Cycle:     82 Energy:      -648.486223  Gnorm:      0.088198  CPU:    6.708
  Cycle:     83 Energy:      -648.505457  Gnorm:      0.092387  CPU:    6.795
  Cycle:     84 Energy:      -648.519298  Gnorm:      0.108777  CPU:    6.870
  Cycle:     85 Energy:      -648.535765  Gnorm:      0.086641  CPU:    6.940
  Cycle:     86 Energy:      -648.553071  Gnorm:      0.089868  CPU:    7.031
  Cycle:     87 Energy:      -648.573121  Gnorm:      0.084172  CPU:    7.118
  Cycle:     88 Energy:      -648.593800  Gnorm:      0.090704  CPU:    7.208
  Cycle:     89 Energy:      -648.626968  Gnorm:      0.191535  CPU:    7.295
  Cycle:     90 Energy:      -648.646381  Gnorm:      0.081967  CPU:    7.369
  Cycle:     91 Energy:      -648.660200  Gnorm:      0.061750  CPU:    7.455
  Cycle:     92 Energy:      -648.672184  Gnorm:      0.063588  CPU:    7.546
  Cycle:     93 Energy:      -648.680946  Gnorm:      0.064529  CPU:    7.616
  Cycle:     94 Energy:      -648.689289  Gnorm:      0.067355  CPU:    7.687
  Cycle:     95 Energy:      -648.694457  Gnorm:      0.060705  CPU:    7.757
  Cycle:     96 Energy:      -648.701344  Gnorm:      0.046036  CPU:    7.844
  Cycle:     97 Energy:      -648.707399  Gnorm:      0.051320  CPU:    7.930
  Cycle:     98 Energy:      -648.710580  Gnorm:      0.045331  CPU:    8.001
  Cycle:     99 Energy:      -648.713265  Gnorm:      0.040517  CPU:    8.071
  Cycle:    100 Energy:      -648.715342  Gnorm:      0.038543  CPU:    8.141
  Cycle:    101 Energy:      -648.717567  Gnorm:      0.041538  CPU:    8.212
  Cycle:    102 Energy:      -648.721011  Gnorm:      0.033100  CPU:    8.298
  Cycle:    103 Energy:      -648.724248  Gnorm:      0.038286  CPU:    8.385
  Cycle:    104 Energy:      -648.726476  Gnorm:      0.045133  CPU:    8.455
  Cycle:    105 Energy:      -648.729682  Gnorm:      0.035272  CPU:    8.542
  Cycle:    106 Energy:      -648.732377  Gnorm:      0.033537  CPU:    8.612
  Cycle:    107 Energy:      -648.735089  Gnorm:      0.030949  CPU:    8.683
  Cycle:    108 Energy:      -648.737595  Gnorm:      0.032326  CPU:    8.769
  Cycle:    109 Energy:      -648.741733  Gnorm:      0.060314  CPU:    8.856
  Cycle:    110 Energy:      -648.743997  Gnorm:      0.030727  CPU:    8.926
  Cycle:    111 Energy:      -648.745287  Gnorm:      0.020484  CPU:    8.996
  Cycle:    112 Energy:      -648.746685  Gnorm:      0.022772  CPU:    9.067
  Cycle:    113 Energy:      -648.747565  Gnorm:      0.027770  CPU:    9.137
  Cycle:    114 Energy:      -648.748592  Gnorm:      0.022611  CPU:    9.207
  Cycle:    115 Energy:      -648.750030  Gnorm:      0.020403  CPU:    9.278
  Cycle:    116 Energy:      -648.751077  Gnorm:      0.023986  CPU:    9.348
  Cycle:    117 Energy:      -648.751795  Gnorm:      0.023141  CPU:    9.419
  Cycle:    118 Energy:      -648.752788  Gnorm:      0.020877  CPU:    9.489
  Cycle:    119 Energy:      -648.753543  Gnorm:      0.018888  CPU:    9.560
  Cycle:    120 Energy:      -648.754116  Gnorm:      0.021724  CPU:    9.630
  Cycle:    121 Energy:      -648.754867  Gnorm:      0.022652  CPU:    9.700
  Cycle:    122 Energy:      -648.755638  Gnorm:      0.019484  CPU:    9.771
  Cycle:    123 Energy:      -648.756580  Gnorm:      0.020390  CPU:    9.857
  Cycle:    124 Energy:      -648.757314  Gnorm:      0.024436  CPU:    9.928
  Cycle:    125 Energy:      -648.758215  Gnorm:      0.020817  CPU:    9.998
  Cycle:    126 Energy:      -648.759005  Gnorm:      0.019450  CPU:   10.069
  Cycle:    127 Energy:      -648.759751  Gnorm:      0.021755  CPU:   10.155
  Cycle:    128 Energy:      -648.760505  Gnorm:      0.021177  CPU:   10.226
  Cycle:    129 Energy:      -648.761290  Gnorm:      0.025997  CPU:   10.296
  Cycle:    130 Energy:      -648.761947  Gnorm:      0.020669  CPU:   10.367
  Cycle:    131 Energy:      -648.762581  Gnorm:      0.020816  CPU:   10.453
  Cycle:    132 Energy:      -648.763405  Gnorm:      0.017527  CPU:   10.524
  Cycle:    133 Energy:      -648.764210  Gnorm:      0.019016  CPU:   10.610
  Cycle:    134 Energy:      -648.765015  Gnorm:      0.021423  CPU:   10.681
  Cycle:    135 Energy:      -648.765584  Gnorm:      0.020917  CPU:   10.751
  Cycle:    136 Energy:      -648.766399  Gnorm:      0.015233  CPU:   10.821
  Cycle:    137 Energy:      -648.767396  Gnorm:      0.014679  CPU:   10.892
  Cycle:    138 Energy:      -648.767905  Gnorm:      0.021397  CPU:   10.962
  Cycle:    139 Energy:      -648.768833  Gnorm:      0.033586  CPU:   11.049
  Cycle:    140 Energy:      -648.769661  Gnorm:      0.020618  CPU:   11.119
  Cycle:    141 Energy:      -648.770157  Gnorm:      0.014191  CPU:   11.189
  Cycle:    142 Energy:      -648.770936  Gnorm:      0.016833  CPU:   11.259
  Cycle:    143 Energy:      -648.771519  Gnorm:      0.016488  CPU:   11.330
  Cycle:    144 Energy:      -648.772161  Gnorm:      0.021808  CPU:   11.400
  Cycle:    145 Energy:      -648.772721  Gnorm:      0.018096  CPU:   11.472
  Cycle:    146 Energy:      -648.773354  Gnorm:      0.016881  CPU:   11.542
  Cycle:    147 Energy:      -648.773976  Gnorm:      0.017929  CPU:   11.612
  Cycle:    148 Energy:      -648.774486  Gnorm:      0.019937  CPU:   11.682
  Cycle:    149 Energy:      -648.775081  Gnorm:      0.017205  CPU:   11.752
  Cycle:    150 Energy:      -648.775523  Gnorm:      0.018370  CPU:   11.823
  Cycle:    151 Energy:      -648.775936  Gnorm:      0.016119  CPU:   11.893
  Cycle:    152 Energy:      -648.776513  Gnorm:      0.012674  CPU:   11.963
  Cycle:    153 Energy:      -648.777061  Gnorm:      0.016611  CPU:   12.034
  Cycle:    154 Energy:      -648.777603  Gnorm:      0.020151  CPU:   12.104
  Cycle:    155 Energy:      -648.778086  Gnorm:      0.017829  CPU:   12.174
  Cycle:    156 Energy:      -648.778876  Gnorm:      0.016489  CPU:   12.244
  Cycle:    157 Energy:      -648.779481  Gnorm:      0.018295  CPU:   12.315
  Cycle:    158 Energy:      -648.779882  Gnorm:      0.015815  CPU:   12.385
  Cycle:    159 Energy:      -648.780516  Gnorm:      0.025614  CPU:   12.455
  Cycle:    160 Energy:      -648.781090  Gnorm:      0.017557  CPU:   12.526
  Cycle:    161 Energy:      -648.781485  Gnorm:      0.016359  CPU:   12.596
  Cycle:    162 Energy:      -648.782109  Gnorm:      0.016057  CPU:   12.666
  Cycle:    163 Energy:      -648.782793  Gnorm:      0.014677  CPU:   12.737
  Cycle:    164 Energy:      -648.783240  Gnorm:      0.015976  CPU:   12.807
  Cycle:    165 Energy:      -648.783754  Gnorm:      0.020414  CPU:   12.877
  Cycle:    166 Energy:      -648.784195  Gnorm:      0.012470  CPU:   12.948
  Cycle:    167 Energy:      -648.784601  Gnorm:      0.012729  CPU:   13.034
  Cycle:    168 Energy:      -648.785044  Gnorm:      0.014001  CPU:   13.105
  Cycle:    169 Energy:      -648.785324  Gnorm:      0.018880  CPU:   13.175
  Cycle:    170 Energy:      -648.785584  Gnorm:      0.013656  CPU:   13.245
  Cycle:    171 Energy:      -648.785994  Gnorm:      0.011748  CPU:   13.315
  Cycle:    172 Energy:      -648.786308  Gnorm:      0.011554  CPU:   13.386
  Cycle:    173 Energy:      -648.786711  Gnorm:      0.018720  CPU:   13.456
  Cycle:    174 Energy:      -648.787156  Gnorm:      0.015673  CPU:   13.526
  Cycle:    175 Energy:      -648.787505  Gnorm:      0.013418  CPU:   13.596
  Cycle:    176 Energy:      -648.787871  Gnorm:      0.016749  CPU:   13.666
  Cycle:    177 Energy:      -648.788371  Gnorm:      0.014971  CPU:   13.737
  Cycle:    178 Energy:      -648.788816  Gnorm:      0.013501  CPU:   13.823
  Cycle:    179 Energy:      -648.789193  Gnorm:      0.019389  CPU:   13.894
  Cycle:    180 Energy:      -648.789480  Gnorm:      0.013623  CPU:   13.964
  Cycle:    181 Energy:      -648.789773  Gnorm:      0.010431  CPU:   14.034
  Cycle:    182 Energy:      -648.790097  Gnorm:      0.012170  CPU:   14.105
  Cycle:    183 Energy:      -648.790367  Gnorm:      0.011213  CPU:   14.175
  Cycle:    184 Energy:      -648.790509  Gnorm:      0.011783  CPU:   14.245
  Cycle:    185 Energy:      -648.791527  Gnorm:      0.018295  CPU:   14.331
  Cycle:    186 Energy:      -648.792028  Gnorm:      0.014354  CPU:   14.402
  Cycle:    187 Energy:      -648.792341  Gnorm:      0.015957  CPU:   14.472
  Cycle:    188 Energy:      -648.792726  Gnorm:      0.016015  CPU:   14.542
  Cycle:    189 Energy:      -648.793319  Gnorm:      0.019312  CPU:   14.612
  Cycle:    190 Energy:      -648.793756  Gnorm:      0.014167  CPU:   14.683
  Cycle:    191 Energy:      -648.794050  Gnorm:      0.012749  CPU:   14.753
  Cycle:    192 Energy:      -648.794214  Gnorm:      0.009298  CPU:   14.823
  ** Hessian has required structure
  Cycle:    193 Energy:      -648.798720  Gnorm:      0.008265  CPU:   15.076
  ** Hessian has required structure
  Cycle:    194 Energy:      -648.803830  Gnorm:      0.006941  CPU:   15.197
  ** Hessian has required structure
  Cycle:    195 Energy:      -648.809361  Gnorm:      0.005237  CPU:   15.318
  ** Hessian has required structure
  Cycle:    196 Energy:      -648.812856  Gnorm:      0.003683  CPU:   15.424
  ** Hessian has required structure
  Cycle:    197 Energy:      -648.813424  Gnorm:      0.000983  CPU:   15.515
  ** Hessian has required structure


  **** Optimisation achieved ****


  Final enthalpy =    -648.81343246 eV      
  Final Gnorm    =       0.00017230

  Components of enthalpy : 

--------------------------------------------------------------------------------
  Interatomic potentials     =         219.33014952 eV    
  Monopole - monopole (real) =        -503.04654693 eV    
  Monopole - monopole (recip)=        -491.68411069 eV    
  Monopole - monopole (total)=        -994.73065762 eV    
  Pressure*volume            =         126.58707565 eV    
--------------------------------------------------------------------------------
  Total lattice enthalpy     =        -648.81343246 eV    
--------------------------------------------------------------------------------
  Total lattice enthalpy     =          -62600.5782 kJ/(mole unit cells)
--------------------------------------------------------------------------------

  Final fractional coordinates of atoms :

--------------------------------------------------------------------------------
   No.  Atomic        x           y          z          Radius
        Label       (Frac)      (Frac)     (Frac)       (Angs) 
--------------------------------------------------------------------------------
     1  Al    c     0.363459    0.069232    0.281646    0.000000
     2  Al    c     0.525737    0.889808    0.778740    0.000000
     3  Al    c     0.173628    0.045711    0.782656    0.000000
     4  Al    c     0.341148    0.581347    0.343256    0.000000
     5  Al    c     0.860774    0.735180    0.762199    0.000000
     6  Al    c     0.005789    0.728792    0.281421    0.000000
     7  Al    c     0.851872    0.236732    0.749770    0.000000
     8  Al    c     0.678877    0.400183    0.267143    0.000000
     9  Mg    c     0.185896    0.553959    0.850439    0.000000
    10  Mg    c     0.498072    0.385027    0.794867    0.000000
    11  Mg    c     0.676521    0.889482    0.249740    0.000000
    12  Mg    c     0.029394    0.241830    0.297198    0.000000
    13  O     c     0.526364    0.579449    0.493856    0.000000
    14  O     c     0.219074    0.793600    0.259680    0.000000
    15  O     c     0.309046    0.834588    0.725903    0.000000
    16  O     c     0.029646    0.579334    0.574427    0.000000
    17  O     c     0.735618    0.977620    0.865191    0.000000
    18  O     c     0.518714    0.060498    0.516248    0.000000
    19  O     c     0.278414    0.287936    0.571769    0.000000
    20  O     c     0.517571    0.187320    0.076667    0.000000
    21  O     c     0.467568    0.709347    0.058424    0.000000
    22  O     c     0.252340    0.286699    0.091945    0.000000
    23  O     c     0.007932    0.903794    0.020295    0.000000
    24  O     c     0.985521    0.418638    0.018310    0.000000
    25  O     c     0.803380    0.696368    0.398914    0.000000
    26  O     c     0.733803    0.501782    0.903930    0.000000
    27  O     c     0.007969    0.041772    0.591284    0.000000
    28  O     c     0.793954    0.235171    0.412134    0.000000
--------------------------------------------------------------------------------

  Final Cartesian lattice vectors (Angstroms) :

        8.191248   -1.545652    0.071563
        0.061802    5.280518   -0.615293
        0.098566   -0.744155    4.763919


  Final cell parameters and derivatives :

--------------------------------------------------------------------------------
       a            8.336108 Angstrom     dE/de1(xx)    -0.000810 eV/strain
       b            5.316604 Angstrom     dE/de2(yy)    -0.001039 eV/strain
       c            4.822697 Angstrom     dE/de3(zz)     0.003832 eV/strain
       alpha      105.505899 Degrees      dE/de4(yz)     0.003751 eV/strain
       beta        86.722432 Degrees      dE/de5(xz)     0.000028 eV/strain
       gamma      100.004706 Degrees      dE/de6(xy)    -0.001630 eV/strain
--------------------------------------------------------------------------------

  Primitive cell volume =           202.816420 Angs**3

  Density of cell =      4.659359 g/cm**3

  Non-primitive cell volume =           202.816420 Angs**3


  Final internal derivatives :

--------------------------------------------------------------------------------
   No.  Atomic          a             b             c           Radius
        Label          (eV)          (eV)          (eV)        (eV/Angs)
--------------------------------------------------------------------------------
      1 Al    c       0.000000      0.000000      0.000000      0.000000
      2 Al    c       0.000953      0.002530     -0.000447      0.000000
      3 Al    c      -0.000879     -0.000270      0.002182      0.000000
      4 Al    c       0.006370      0.000978     -0.001293      0.000000
      5 Al    c       0.000377      0.000448      0.000236      0.000000
      6 Al    c      -0.000459      0.001294      0.000128      0.000000
      7 Al    c      -0.000096     -0.000125     -0.000678      0.000000
      8 Al    c      -0.001782     -0.001277     -0.000966      0.000000
      9 Mg    c      -0.004170      0.000359     -0.000597      0.000000
     10 Mg    c       0.002126     -0.002660      0.002180      0.000000
     11 Mg    c       0.000666      0.000888      0.000292      0.000000
     12 Mg    c      -0.000312     -0.000946      0.000390      0.000000
     13 O     c      -0.006024     -0.001145      0.000191      0.000000
     14 O     c      -0.000458     -0.000374      0.000068      0.000000
     15 O     c       0.000540     -0.002026      0.000484      0.000000
     16 O     c       0.000580     -0.000394      0.000186      0.000000
     17 O     c       0.000219     -0.000373      0.000385      0.000000
     18 O     c      -0.002520      0.000751     -0.000608      0.000000
     19 O     c      -0.002799      0.001636      0.004108      0.000000
     20 O     c      -0.001525     -0.000632      0.000550      0.000000
     21 O     c       0.000066      0.000195     -0.001434      0.000000
     22 O     c       0.000532     -0.000432      0.000732      0.000000
     23 O     c       0.000688     -0.000247     -0.000678      0.000000
     24 O     c       0.000864      0.000644      0.000143      0.000000
     25 O     c       0.001125      0.000614      0.000615      0.000000
     26 O     c      -0.000383      0.000682      0.000463      0.000000
     27 O     c      -0.000038      0.000333     -0.000423      0.000000
     28 O     c       0.000475      0.000435      0.000081      0.000000
--------------------------------------------------------------------------------
  Maximum abs         0.006370      0.002660      0.004108      0.000000
--------------------------------------------------------------------------------


  Time to end of optimisation =      15.6042 seconds


  Peak dynamic memory used =       2.03 MB 


  Timing analysis for GULP :

--------------------------------------------------------------------------------
  Task / Subroutine                                          Time (Seconds)
--------------------------------------------------------------------------------
  Calculation of reciprocal space energy and derivatives          0.5490
  Calculation of real space energy and derivatives               14.8906
  Calculation and manipulation of Hessian matrix                  0.1132
  Global summation overhead                                       0.0012
--------------------------------------------------------------------------------
  Total CPU time                                                 15.6042
--------------------------------------------------------------------------------


  Job Finished at 15:57.27 11th June       2024                               

