********************************************************************************
*                       GENERAL UTILITY LATTICE PROGRAM                        *
*                                 Julian Gale                                  *
*                       Curtin Institute for Computation                       *
*                    School of Molecular and Life Sciences                     *
*                    Curtin University, Western Australia                      *
********************************************************************************
* Version = 6.0.0 * Last modified =  12th July 2021                            *
********************************************************************************
*  optimise     - perform optimisation run                                     *
*  conp         - constant pressure calculation                                *
*  nosymmetry   - turn off symmetry after initial structure generation         *
*  conjugate    - use conjugate gradients minimiser                            *
********************************************************************************

  Job Started  at 16:00.31 11th June       2024                               

  Number of CPUs =     1


  Total number of configurations input =      1

********************************************************************************
*  Input for Configuration =   1                                               *
********************************************************************************

  Formula = Al8Mg4O16                                                   

  Number of irreducible atoms/shells =      28


  Total number atoms/shells =      28

  Dimensionality = 3               :  Bulk   



  Cartesian lattice vectors (Angstroms) :

        5.074098   -1.215587   -0.245543
        0.035326    6.563040   -0.658646
       -0.445056    0.038263    6.271581

  Cell parameters (Angstroms/Degrees):

  a =       5.2234    alpha =  95.3895
  b =       6.5961    beta  =  96.7228
  c =       6.2875    gamma = 102.8062

  Initial cell volume =         208.176407 Angs**3

  Temperature of configuration =   0.00     K 

  Pressure of configuration =       100.000 GPa 

  Fractional coordinates of asymmetric unit :

--------------------------------------------------------------------------------
   No.  Atomic       x           y          z         Charge      Occupancy
        Label      (Frac)      (Frac)     (Frac)        (e)         (Frac)  
--------------------------------------------------------------------------------
      1 Al    c    0.138750    0.316002    0.057196     3.00000    1.000000    
      2 Al    c    0.132095 *  0.301311 *  0.512911 *   3.00000    1.000000    
      3 Al    c    0.589857 *  0.025764 *  0.876654 *   3.00000    1.000000    
      4 Al    c    0.235186 *  0.440799 *  0.875080 *   3.00000    1.000000    
      5 Al    c    0.139074 *  0.677177 *  0.410654 *   3.00000    1.000000    
      6 Al    c    0.063893 *  0.920412 *  0.619041 *   3.00000    1.000000    
      7 Al    c    0.693776 *  0.502503 *  0.038057 *   3.00000    1.000000    
      8 Al    c    0.514228 *  0.440926 *  0.614622 *   3.00000    1.000000    
      9 Mg    c    0.596756 *  0.325350 *  0.741904 *   2.00000    1.000000    
     10 Mg    c    0.140904 *  0.014110 *  0.199513 *   2.00000    1.000000    
     11 Mg    c    0.599008 *  0.315358 *  0.286934 *   2.00000    1.000000    
     12 Mg    c    0.869241 *  0.453614 *  0.326675 *   2.00000    1.000000    
     13 O     c    0.287860 *  0.237489 *  0.814799 *  -2.00000    1.000000    
     14 O     c    0.274463 *  0.263739 *  0.358211 *  -2.00000    1.000000    
     15 O     c    0.460948 *  0.267009 *  0.559269 *  -2.00000    1.000000    
     16 O     c    0.910982 *  0.005282 *  0.476827 *  -2.00000    1.000000    
     17 O     c    0.439338 *  0.216647 *  0.103321 *  -2.00000    1.000000    
     18 O     c    0.702726 *  0.913486 *  0.869125 *  -2.00000    1.000000    
     19 O     c    0.628293 *  0.875501 *  0.538890 *  -2.00000    1.000000    
     20 O     c    0.121909 *  0.509087 *  0.080015 *  -2.00000    1.000000    
     21 O     c    0.145723 *  0.867660 *  0.059231 *  -2.00000    1.000000    
     22 O     c    0.674632 *  0.384994 *  0.557692 *  -2.00000    1.000000    
     23 O     c    0.557568 *  0.677194 *  0.026583 *  -2.00000    1.000000    
     24 O     c    0.721841 *  0.668302 *  0.509855 *  -2.00000    1.000000    
     25 O     c    0.462411 *  0.679975 *  0.347702 *  -2.00000    1.000000    
     26 O     c    0.340232 *  0.390012 *  0.267118 *  -2.00000    1.000000    
     27 O     c    0.241006 *  0.484447 *  0.540499 *  -2.00000    1.000000    
     28 O     c    0.802239 *  0.687582 *  0.198246 *  -2.00000    1.000000    
--------------------------------------------------------------------------------



********************************************************************************
*  General input information                                                   *
********************************************************************************

  Species output for all configurations : 

--------------------------------------------------------------------------------
  Species    Type    Atomic    Atomic    Charge       Radii (Angs)     Library
                     Number     Mass       (e)     Cova   Ionic  VDW   Symbol
--------------------------------------------------------------------------------
    Mg       Core       12      24.31   2.000000   1.100  0.000  1.640          
    Al       Core       13      26.98   3.000000   1.350  0.000  2.050          
    O        Core        8      16.00  -2.000000   0.730  0.000  1.360          
--------------------------------------------------------------------------------


  Lattice summation method               =    Ewald          (3-D)
                                         =    Parry          (2-D)
                                         =    Saunders et al (1-D)
  Accuracy factor for lattice sums       =   12.000


  Analytic derivatives to be used

  Time limit = Infinity

  Maximum range for interatomic potentials =    100000.000000 Angstroms

  General interatomic potentials :

--------------------------------------------------------------------------------
Atom  Types   Potential      Parameter       Value         Units   Cutoffs(Ang)
  1     2                                                            Min /  Max 
--------------------------------------------------------------------------------
O    c Mg   c Lennard       Lennard-Jones A  1.5000000    eV*Ang^m  0.000  6.000
                            Lennard-Jones B  0.0000000    eV*Ang^n  
                            Exponent m        12          None
                            Exponent n         6          None
--------------------------------------------------------------------------------
O    c Al   c Lennard       Lennard-Jones A  1.5000000    eV*Ang^m  0.000  6.000
                            Lennard-Jones B  0.0000000    eV*Ang^n  
                            Exponent m        12          None
                            Exponent n         6          None
--------------------------------------------------------------------------------
O    c O    c Lennard       Lennard-Jones A  1.5000000    eV*Ang^m  0.000  6.000
                            Lennard-Jones B  0.0000000    eV*Ang^n  
                            Exponent m        12          None
                            Exponent n         6          None
--------------------------------------------------------------------------------
Mg   c Mg   c Lennard       Lennard-Jones A  1.5000000    eV*Ang^m  0.000  6.000
                            Lennard-Jones B  0.0000000    eV*Ang^n  
                            Exponent m        12          None
                            Exponent n         6          None
--------------------------------------------------------------------------------
Mg   c Al   c Lennard       Lennard-Jones A  1.5000000    eV*Ang^m  0.000  6.000
                            Lennard-Jones B  0.0000000    eV*Ang^n  
                            Exponent m        12          None
                            Exponent n         6          None
--------------------------------------------------------------------------------
Al   c Al   c Lennard       Lennard-Jones A  1.5000000    eV*Ang^m  0.000  6.000
                            Lennard-Jones B  0.0000000    eV*Ang^n  
                            Exponent m        12          None
                            Exponent n         6          None
--------------------------------------------------------------------------------
O    c Mg   c Buckingham    Buckingham A     1428.5000    eV        0.000  7.000
                            Buckingham rho  0.29450000    Ang       
                            Buckingham C     0.0000000    eV*Ang^6  
--------------------------------------------------------------------------------
O    c Al   c Buckingham    Buckingham A     1114.9000    eV        0.000  7.000
                            Buckingham rho  0.31180000    Ang       
                            Buckingham C     0.0000000    eV*Ang^6  
--------------------------------------------------------------------------------
O    c O    c Buckingham    Buckingham A     2023.8000    eV        0.000  7.000
                            Buckingham rho  0.26740000    Ang       
                            Buckingham C     0.0000000    eV*Ang^6  
--------------------------------------------------------------------------------

********************************************************************************
*  Output for configuration   1                                                *
********************************************************************************


  Components of enthalpy : 

--------------------------------------------------------------------------------
  Interatomic potentials     =         513.32547091 eV    
  Monopole - monopole (real) =        -333.46534173 eV    
  Monopole - monopole (recip)=        -449.52736887 eV    
  Monopole - monopole (total)=        -782.99271060 eV    
  Pressure*volume            =         129.93249045 eV    
--------------------------------------------------------------------------------
  Total lattice enthalpy     =        -139.73474924 eV    
--------------------------------------------------------------------------------
  Total lattice enthalpy     =          -13482.2673 kJ/(mole unit cells)
--------------------------------------------------------------------------------


  Number of variables =       87

  Maximum number of calculations  =           850
  Maximum Hessian update interval =            10
  Maximum step size               =   1.000000000
  Maximum parameter tolerance     =   0.000010000
  Maximum function  tolerance     =   0.000010000
  Maximum gradient  tolerance     =   0.001000000
  Maximum gradient  component     =   0.010000000

  Cell parameters to be optimised using strains

  Conjugate gradient optimiser to be used

  Lower half triangular hessian to be used

  Minimiser to switch to RFO
  When gradient norm is less than     0.010000

  Start of bulk optimisation :

  Cycle:      0 Energy:      -139.734749  Gnorm:     31.978195  CPU:    0.071
  Cycle:      1 Energy:      -379.563193  Gnorm:     12.592831  CPU:    0.309
  Cycle:      2 Energy:      -490.499029  Gnorm:      7.228536  CPU:    0.416
  Cycle:      3 Energy:      -544.232122  Gnorm:      4.422650  CPU:    0.533
  Cycle:      4 Energy:      -581.407671  Gnorm:      3.361980  CPU:    0.641
  Cycle:      5 Energy:      -596.089420  Gnorm:      2.732194  CPU:    0.733
  Cycle:      6 Energy:      -604.689911  Gnorm:      2.068858  CPU:    0.824
  Cycle:      7 Energy:      -612.430695  Gnorm:      1.685533  CPU:    0.915
  Cycle:      8 Energy:      -617.331027  Gnorm:      1.212040  CPU:    1.011
  Cycle:      9 Energy:      -621.034010  Gnorm:      1.208517  CPU:    1.102
  Cycle:     10 Energy:      -622.763214  Gnorm:      0.848491  CPU:    1.214
  Cycle:     11 Energy:      -625.107703  Gnorm:      1.067186  CPU:    1.323
  Cycle:     12 Energy:      -627.399660  Gnorm:      0.958720  CPU:    1.419
  Cycle:     13 Energy:      -629.303690  Gnorm:      0.807575  CPU:    1.533
  Cycle:     14 Energy:      -630.498711  Gnorm:      0.723340  CPU:    1.647
  Cycle:     15 Energy:      -631.632387  Gnorm:      0.554163  CPU:    1.786
  Cycle:     16 Energy:      -632.407985  Gnorm:      0.551659  CPU:    1.926
  Cycle:     17 Energy:      -633.128622  Gnorm:      0.470005  CPU:    2.065
  Cycle:     18 Energy:      -633.709449  Gnorm:      0.497382  CPU:    2.205
  Cycle:     19 Energy:      -634.120472  Gnorm:      0.421834  CPU:    2.320
  Cycle:     20 Energy:      -634.349390  Gnorm:      0.341729  CPU:    2.434
  Cycle:     21 Energy:      -634.567467  Gnorm:      0.262862  CPU:    2.574
  Cycle:     22 Energy:      -634.805711  Gnorm:      0.271273  CPU:    2.715
  Cycle:     23 Energy:      -635.026064  Gnorm:      0.284708  CPU:    2.829
  Cycle:     24 Energy:      -635.233487  Gnorm:      0.274754  CPU:    2.944
  Cycle:     25 Energy:      -635.405400  Gnorm:      0.244026  CPU:    3.059
  Cycle:     26 Energy:      -635.531283  Gnorm:      0.240147  CPU:    3.201
  Cycle:     27 Energy:      -635.615960  Gnorm:      0.190301  CPU:    3.316
  Cycle:     28 Energy:      -635.722428  Gnorm:      0.202885  CPU:    3.459
  Cycle:     29 Energy:      -635.856500  Gnorm:      0.291999  CPU:    3.601
  Cycle:     30 Energy:      -635.939811  Gnorm:      0.183266  CPU:    3.743
  Cycle:     31 Energy:      -636.007576  Gnorm:      0.169524  CPU:    3.885
  Cycle:     32 Energy:      -636.075247  Gnorm:      0.191384  CPU:    4.028
  Cycle:     33 Energy:      -636.166540  Gnorm:      0.215853  CPU:    4.170
  Cycle:     34 Energy:      -636.285917  Gnorm:      0.241109  CPU:    4.312
  Cycle:     35 Energy:      -636.459264  Gnorm:      0.308295  CPU:    4.454
  Cycle:     36 Energy:      -636.818323  Gnorm:      0.408553  CPU:    4.597
  Cycle:     37 Energy:      -637.293741  Gnorm:      0.461396  CPU:    4.715
  Cycle:     38 Energy:      -637.605580  Gnorm:      0.434326  CPU:    4.830
  Cycle:     39 Energy:      -638.241857  Gnorm:      0.682458  CPU:    4.972
  Cycle:     40 Energy:      -638.627656  Gnorm:      0.394870  CPU:    5.115
  Cycle:     41 Energy:      -639.286207  Gnorm:      0.525183  CPU:    5.258
  Cycle:     42 Energy:      -639.967488  Gnorm:      0.505994  CPU:    5.374
  Cycle:     43 Energy:      -640.422961  Gnorm:      0.420638  CPU:    5.491
  Cycle:     44 Energy:      -640.889312  Gnorm:      0.470693  CPU:    5.637
  Cycle:     45 Energy:      -641.530913  Gnorm:      0.508124  CPU:    5.785
  Cycle:     46 Energy:      -641.943770  Gnorm:      0.403388  CPU:    5.906
  Cycle:     47 Energy:      -642.376463  Gnorm:      0.384917  CPU:    6.057
  Cycle:     48 Energy:      -642.722604  Gnorm:      0.418622  CPU:    6.180
  Cycle:     49 Energy:      -643.097803  Gnorm:      0.439805  CPU:    6.302
  Cycle:     50 Energy:      -643.312474  Gnorm:      0.324266  CPU:    6.424
  Cycle:     51 Energy:      -643.555628  Gnorm:      0.283102  CPU:    6.575
  Cycle:     52 Energy:      -643.783110  Gnorm:      0.308496  CPU:    6.726
  Cycle:     53 Energy:      -644.106326  Gnorm:      0.345996  CPU:    6.877
  Cycle:     54 Energy:      -644.399191  Gnorm:      0.369401  CPU:    6.999
  Cycle:     55 Energy:      -644.616389  Gnorm:      0.303112  CPU:    7.120
  Cycle:     56 Energy:      -644.837026  Gnorm:      0.309157  CPU:    7.270
  Cycle:     57 Energy:      -645.013965  Gnorm:      0.260625  CPU:    7.392
  Cycle:     58 Energy:      -645.147699  Gnorm:      0.214037  CPU:    7.543
  Cycle:     59 Energy:      -645.268748  Gnorm:      0.225519  CPU:    7.694
  Cycle:     60 Energy:      -645.324138  Gnorm:      0.168320  CPU:    7.816
  Cycle:     61 Energy:      -645.406167  Gnorm:      0.172771  CPU:    7.967
  Cycle:     62 Energy:      -645.468739  Gnorm:      0.162773  CPU:    8.089
  Cycle:     63 Energy:      -645.526970  Gnorm:      0.160230  CPU:    8.240
  Cycle:     64 Energy:      -645.602204  Gnorm:      0.208184  CPU:    8.389
  Cycle:     65 Energy:      -645.704040  Gnorm:      0.225018  CPU:    8.539
  Cycle:     66 Energy:      -645.821263  Gnorm:      0.217457  CPU:    8.659
  Cycle:     67 Energy:      -645.936240  Gnorm:      0.215452  CPU:    8.807
  Cycle:     68 Energy:      -646.059484  Gnorm:      0.229568  CPU:    8.955
  Cycle:     69 Energy:      -646.170452  Gnorm:      0.233908  CPU:    9.074
  Cycle:     70 Energy:      -646.240867  Gnorm:      0.199425  CPU:    9.194
  Cycle:     71 Energy:      -646.331659  Gnorm:      0.188792  CPU:    9.342
  Cycle:     72 Energy:      -646.427832  Gnorm:      0.168295  CPU:    9.490
  Cycle:     73 Energy:      -646.479040  Gnorm:      0.129359  CPU:    9.610
  Cycle:     74 Energy:      -646.516156  Gnorm:      0.111321  CPU:    9.759
  Cycle:     75 Energy:      -646.538975  Gnorm:      0.098440  CPU:    9.879
  Cycle:     76 Energy:      -646.558530  Gnorm:      0.074539  CPU:   10.028
  Cycle:     77 Energy:      -646.576994  Gnorm:      0.074287  CPU:   10.149
  Cycle:     78 Energy:      -646.589419  Gnorm:      0.064468  CPU:   10.269
  Cycle:     79 Energy:      -646.597080  Gnorm:      0.063180  CPU:   10.390
  Cycle:     80 Energy:      -646.601034  Gnorm:      0.041062  CPU:   10.511
  Cycle:     81 Energy:      -646.605065  Gnorm:      0.041800  CPU:   10.632
  Cycle:     82 Energy:      -646.609936  Gnorm:      0.040296  CPU:   10.781
  Cycle:     83 Energy:      -646.614011  Gnorm:      0.044207  CPU:   10.901
  Cycle:     84 Energy:      -646.618221  Gnorm:      0.039258  CPU:   11.022
  Cycle:     85 Energy:      -646.622340  Gnorm:      0.040700  CPU:   11.142
  Cycle:     86 Energy:      -646.626105  Gnorm:      0.041780  CPU:   11.263
  Cycle:     87 Energy:      -646.631106  Gnorm:      0.036148  CPU:   11.411
  Cycle:     88 Energy:      -646.634838  Gnorm:      0.034213  CPU:   11.533
  Cycle:     89 Energy:      -646.637779  Gnorm:      0.037543  CPU:   11.654
  Cycle:     90 Energy:      -646.639411  Gnorm:      0.021990  CPU:   11.774
  Cycle:     91 Energy:      -646.640562  Gnorm:      0.020846  CPU:   11.922
  Cycle:     92 Energy:      -646.641499  Gnorm:      0.022857  CPU:   12.042
  Cycle:     93 Energy:      -646.642450  Gnorm:      0.017074  CPU:   12.162
  Cycle:     94 Energy:      -646.643239  Gnorm:      0.015779  CPU:   12.282
  Cycle:     95 Energy:      -646.643774  Gnorm:      0.014676  CPU:   12.402
  Cycle:     96 Energy:      -646.644268  Gnorm:      0.012248  CPU:   12.522
  Cycle:     97 Energy:      -646.644646  Gnorm:      0.012525  CPU:   12.642
  Cycle:     98 Energy:      -646.644957  Gnorm:      0.010988  CPU:   12.762
  Cycle:     99 Energy:      -646.645247  Gnorm:      0.011543  CPU:   12.882
  Cycle:    100 Energy:      -646.645455  Gnorm:      0.008468  CPU:   13.002
  ** Hessian has required structure
  Cycle:    101 Energy:      -646.647044  Gnorm:      0.004864  CPU:   13.338
  ** Hessian has required structure
  Cycle:    102 Energy:      -646.647809  Gnorm:      0.000680  CPU:   13.505
  ** Hessian has required structure
  Cycle:    103 Energy:      -646.647823  Gnorm:      0.000063  CPU:   13.644
  ** Hessian has required structure


  **** Optimisation achieved ****


  Final enthalpy =    -646.64782295 eV      
  Final Gnorm    =       0.00000916

  Components of enthalpy : 

--------------------------------------------------------------------------------
  Interatomic potentials     =         219.90700339 eV    
  Monopole - monopole (real) =        -503.91720855 eV    
  Monopole - monopole (recip)=        -490.31203296 eV    
  Monopole - monopole (total)=        -994.22924151 eV    
  Pressure*volume            =         127.67441517 eV    
--------------------------------------------------------------------------------
  Total lattice enthalpy     =        -646.64782295 eV    
--------------------------------------------------------------------------------
  Total lattice enthalpy     =          -62391.6300 kJ/(mole unit cells)
--------------------------------------------------------------------------------

  Final fractional coordinates of atoms :

--------------------------------------------------------------------------------
   No.  Atomic        x           y          z          Radius
        Label       (Frac)      (Frac)     (Frac)       (Angs) 
--------------------------------------------------------------------------------
     1  Al    c     0.138750    0.316002    0.057196    0.000000
     2  Al    c     0.139161    0.312682    0.543041    0.000000
     3  Al    c     0.412370    0.986198    0.819564    0.000000
     4  Al    c     0.123294    0.664442    0.884496    0.000000
     5  Al    c     0.140397    0.673374    0.369185    0.000000
     6  Al    c     0.882332    0.984961    0.600690    0.000000
     7  Al    c     0.630730    0.640786    0.102290    0.000000
     8  Al    c     0.648026    0.621415    0.565628    0.000000
     9  Mg    c     0.639152    0.320270    0.772849    0.000000
    10  Mg    c     0.888451    0.954491    0.054563    0.000000
    11  Mg    c     0.386094    0.036113    0.314139    0.000000
    12  Mg    c     0.693900    0.309186    0.273965    0.000000
    13  O     c     0.217170    0.436539    0.846978    0.000000
    14  O     c     0.042939    0.200573    0.250960    0.000000
    15  O     c     0.246010    0.099711    0.611889    0.000000
    16  O     c     0.764920    0.149619    0.491537    0.000000
    17  O     c     0.387689    0.170854    0.036774    0.000000
    18  O     c     0.793045    0.114649    0.854219    0.000000
    19  O     c     0.454997    0.804404    0.593660    0.000000
    20  O     c     0.860477    0.463669    0.113065    0.000000
    21  O     c     0.049862    0.858677    0.778854    0.000000
    22  O     c     0.473310    0.386536    0.507157    0.000000
    23  O     c     0.742291    0.612216    0.844516    0.000000
    24  O     c     0.811670    0.768218    0.391527    0.000000
    25  O     c     0.501424    0.836804    0.019953    0.000000
    26  O     c     0.384592    0.543539    0.236737    0.000000
    27  O     c     0.004348    0.527990    0.536356    0.000000
    28  O     c     0.117709    0.800665    0.172747    0.000000
--------------------------------------------------------------------------------

  Final Cartesian lattice vectors (Angstroms) :

        4.749337   -1.097442   -0.401015
        0.319443    7.168431   -1.315841
       -0.769698   -0.614997    6.153275


  Final cell parameters and derivatives :

--------------------------------------------------------------------------------
       a            4.890950 Angstrom     dE/de1(xx)     0.000209 eV/strain
       b            7.295196 Angstrom     dE/de2(yy)     0.000126 eV/strain
       c            6.231649 Angstrom     dE/de3(zz)     0.000014 eV/strain
       alpha      106.289170 Degrees      dE/de4(yz)    -0.000012 eV/strain
       beta       100.297197 Degrees      dE/de5(xz)    -0.000115 eV/strain
       gamma       99.391177 Degrees      dE/de6(xy)    -0.000194 eV/strain
--------------------------------------------------------------------------------

  Primitive cell volume =           204.558544 Angs**3

  Density of cell =      4.619678 g/cm**3

  Non-primitive cell volume =           204.558544 Angs**3


  Final internal derivatives :

--------------------------------------------------------------------------------
   No.  Atomic          a             b             c           Radius
        Label          (eV)          (eV)          (eV)        (eV/Angs)
--------------------------------------------------------------------------------
      1 Al    c       0.000000      0.000000      0.000000      0.000000
      2 Al    c       0.000025      0.000076     -0.000066      0.000000
      3 Al    c       0.000048     -0.000062     -0.000034      0.000000
      4 Al    c       0.000051     -0.000058      0.000049      0.000000
      5 Al    c       0.000058     -0.000146     -0.000006      0.000000
      6 Al    c      -0.000031     -0.000002      0.000041      0.000000
      7 Al    c       0.000037      0.000209     -0.000157      0.000000
      8 Al    c      -0.000057     -0.000092      0.000181      0.000000
      9 Mg    c      -0.000015      0.000112     -0.000064      0.000000
     10 Mg    c       0.000044      0.000088      0.000023      0.000000
     11 Mg    c       0.000022     -0.000045      0.000017      0.000000
     12 Mg    c      -0.000114      0.000158     -0.000048      0.000000
     13 O     c       0.000026     -0.000066     -0.000009      0.000000
     14 O     c       0.000068     -0.000070     -0.000048      0.000000
     15 O     c      -0.000004      0.000024      0.000071      0.000000
     16 O     c      -0.000006     -0.000063     -0.000062      0.000000
     17 O     c       0.000180     -0.000202     -0.000017      0.000000
     18 O     c      -0.000158     -0.000070      0.000018      0.000000
     19 O     c      -0.000020      0.000058     -0.000009      0.000000
     20 O     c      -0.000191      0.000239      0.000080      0.000000
     21 O     c       0.000081     -0.000029     -0.000010      0.000000
     22 O     c       0.000010      0.000097     -0.000010      0.000000
     23 O     c      -0.000030     -0.000011      0.000001      0.000000
     24 O     c       0.000046      0.000030     -0.000036      0.000000
     25 O     c      -0.000025      0.000057     -0.000003      0.000000
     26 O     c      -0.000062     -0.000034     -0.000004      0.000000
     27 O     c       0.000081     -0.000082      0.000045      0.000000
     28 O     c      -0.000013      0.000037      0.000024      0.000000
--------------------------------------------------------------------------------
  Maximum abs         0.000191      0.000239      0.000181      0.000000
--------------------------------------------------------------------------------


  Time to end of optimisation =      13.7830 seconds


  Peak dynamic memory used =       2.03 MB 


  Timing analysis for GULP :

--------------------------------------------------------------------------------
  Task / Subroutine                                          Time (Seconds)
--------------------------------------------------------------------------------
  Calculation of reciprocal space energy and derivatives          0.3178
  Calculation of real space energy and derivatives               13.3537
  Calculation and manipulation of Hessian matrix                  0.0765
  Global summation overhead                                       0.0007
--------------------------------------------------------------------------------
  Total CPU time                                                 13.7830
--------------------------------------------------------------------------------


  Job Finished at 16:00.45 11th June       2024                               

