********************************************************************************
*                       GENERAL UTILITY LATTICE PROGRAM                        *
*                                 Julian Gale                                  *
*                       Curtin Institute for Computation                       *
*                    School of Molecular and Life Sciences                     *
*                    Curtin University, Western Australia                      *
********************************************************************************
* Version = 6.0.0 * Last modified =  12th July 2021                            *
********************************************************************************
*  optimise     - perform optimisation run                                     *
*  conp         - constant pressure calculation                                *
*  nosymmetry   - turn off symmetry after initial structure generation         *
*  conjugate    - use conjugate gradients minimiser                            *
********************************************************************************

  Job Started  at 15:58.31 11th June       2024                               

  Number of CPUs =     1


  Total number of configurations input =      1

********************************************************************************
*  Input for Configuration =   1                                               *
********************************************************************************

  Formula = Al8Mg4O16                                                   

  Number of irreducible atoms/shells =      28


  Total number atoms/shells =      28

  Dimensionality = 3               :  Bulk   



  Cartesian lattice vectors (Angstroms) :

        3.941517   -1.940931    0.008469
       -0.050771    7.452556   -0.002582
       -0.012138    0.014432    7.110832

  Cell parameters (Angstroms/Degrees):

  a =       4.3935    alpha =  89.9029
  b =       7.4527    beta  =  90.0287
  c =       7.1109    gamma = 116.6074

  Initial cell volume =         208.176407 Angs**3

  Temperature of configuration =   0.00     K 

  Pressure of configuration =       100.000 GPa 

  Fractional coordinates of asymmetric unit :

--------------------------------------------------------------------------------
   No.  Atomic       x           y          z         Charge      Occupancy
        Label      (Frac)      (Frac)     (Frac)        (e)         (Frac)  
--------------------------------------------------------------------------------
      1 Al    c    0.086912    0.455450    0.535624     3.00000    1.000000    
      2 Al    c    0.488024 *  0.075440 *  0.433648 *   3.00000    1.000000    
      3 Al    c    0.853159 *  0.835942 *  0.500433 *   3.00000    1.000000    
      4 Al    c    0.308388 *  0.048014 *  0.632274 *   3.00000    1.000000    
      5 Al    c    0.085627 *  0.352379 *  0.738432 *   3.00000    1.000000    
      6 Al    c    0.185273 *  0.797999 *  0.011545 *   3.00000    1.000000    
      7 Al    c    0.223401 *  0.416606 *  0.016993 *   3.00000    1.000000    
      8 Al    c    0.058460 *  0.901851 *  0.685752 *   3.00000    1.000000    
      9 Mg    c    0.751008 *  0.959139 *  0.215874 *   2.00000    1.000000    
     10 Mg    c    0.065964 *  0.637607 *  0.215875 *   2.00000    1.000000    
     11 Mg    c    0.230236 *  0.335663 *  0.215877 *   2.00000    1.000000    
     12 Mg    c    0.182752 *  0.034141 *  0.035949 *   2.00000    1.000000    
     13 O     c    0.925926 *  0.219657 *  0.370195 *  -2.00000    1.000000    
     14 O     c    0.925918 *  0.219657 *  0.061556 *  -2.00000    1.000000    
     15 O     c    0.064469 *  0.062960 *  0.063732 *  -2.00000    1.000000    
     16 O     c    0.064480 *  0.062963 *  0.368017 *  -2.00000    1.000000    
     17 O     c    0.364939 *  0.786917 *  0.380549 *  -2.00000    1.000000    
     18 O     c    0.364936 *  0.786914 *  0.051201 *  -2.00000    1.000000    
     19 O     c    0.635902 *  0.495693 *  0.064891 *  -2.00000    1.000000    
     20 O     c    0.635909 *  0.495696 *  0.366863 *  -2.00000    1.000000    
     21 O     c    0.362659 *  0.608822 *  0.857077 *  -2.00000    1.000000    
     22 O     c    0.877186 *  0.616818 *  0.632268 *  -2.00000    1.000000    
     23 O     c    0.516797 *  0.921180 *  0.738443 *  -2.00000    1.000000    
     24 O     c    0.792198 *  0.985410 *  0.016987 *  -2.00000    1.000000    
     25 O     c    0.931463 *  0.040020 *  0.857082 *  -2.00000    1.000000    
     26 O     c    0.754091 *  0.229201 *  0.011546 *  -2.00000    1.000000    
     27 O     c    0.489682 *  0.333046 *  0.685764 *  -2.00000    1.000000    
     28 O     c    0.751543 *  0.602947 *  0.035944 *  -2.00000    1.000000    
--------------------------------------------------------------------------------



********************************************************************************
*  General input information                                                   *
********************************************************************************

  Species output for all configurations : 

--------------------------------------------------------------------------------
  Species    Type    Atomic    Atomic    Charge       Radii (Angs)     Library
                     Number     Mass       (e)     Cova   Ionic  VDW   Symbol
--------------------------------------------------------------------------------
    Mg       Core       12      24.31   2.000000   1.100  0.000  1.640          
    Al       Core       13      26.98   3.000000   1.350  0.000  2.050          
    O        Core        8      16.00  -2.000000   0.730  0.000  1.360          
--------------------------------------------------------------------------------


  Lattice summation method               =    Ewald          (3-D)
                                         =    Parry          (2-D)
                                         =    Saunders et al (1-D)
  Accuracy factor for lattice sums       =   12.000


  Analytic derivatives to be used

  Time limit = Infinity

  Maximum range for interatomic potentials =    100000.000000 Angstroms

  General interatomic potentials :

--------------------------------------------------------------------------------
Atom  Types   Potential      Parameter       Value         Units   Cutoffs(Ang)
  1     2                                                            Min /  Max 
--------------------------------------------------------------------------------
O    c Mg   c Lennard       Lennard-Jones A  1.5000000    eV*Ang^m  0.000  6.000
                            Lennard-Jones B  0.0000000    eV*Ang^n  
                            Exponent m        12          None
                            Exponent n         6          None
--------------------------------------------------------------------------------
O    c Al   c Lennard       Lennard-Jones A  1.5000000    eV*Ang^m  0.000  6.000
                            Lennard-Jones B  0.0000000    eV*Ang^n  
                            Exponent m        12          None
                            Exponent n         6          None
--------------------------------------------------------------------------------
O    c O    c Lennard       Lennard-Jones A  1.5000000    eV*Ang^m  0.000  6.000
                            Lennard-Jones B  0.0000000    eV*Ang^n  
                            Exponent m        12          None
                            Exponent n         6          None
--------------------------------------------------------------------------------
Mg   c Mg   c Lennard       Lennard-Jones A  1.5000000    eV*Ang^m  0.000  6.000
                            Lennard-Jones B  0.0000000    eV*Ang^n  
                            Exponent m        12          None
                            Exponent n         6          None
--------------------------------------------------------------------------------
Mg   c Al   c Lennard       Lennard-Jones A  1.5000000    eV*Ang^m  0.000  6.000
                            Lennard-Jones B  0.0000000    eV*Ang^n  
                            Exponent m        12          None
                            Exponent n         6          None
--------------------------------------------------------------------------------
Al   c Al   c Lennard       Lennard-Jones A  1.5000000    eV*Ang^m  0.000  6.000
                            Lennard-Jones B  0.0000000    eV*Ang^n  
                            Exponent m        12          None
                            Exponent n         6          None
--------------------------------------------------------------------------------
O    c Mg   c Buckingham    Buckingham A     1428.5000    eV        0.000  7.000
                            Buckingham rho  0.29450000    Ang       
                            Buckingham C     0.0000000    eV*Ang^6  
--------------------------------------------------------------------------------
O    c Al   c Buckingham    Buckingham A     1114.9000    eV        0.000  7.000
                            Buckingham rho  0.31180000    Ang       
                            Buckingham C     0.0000000    eV*Ang^6  
--------------------------------------------------------------------------------
O    c O    c Buckingham    Buckingham A     2023.8000    eV        0.000  7.000
                            Buckingham rho  0.26740000    Ang       
                            Buckingham C     0.0000000    eV*Ang^6  
--------------------------------------------------------------------------------

********************************************************************************
*  Output for configuration   1                                                *
********************************************************************************


  Components of enthalpy : 

--------------------------------------------------------------------------------
  Interatomic potentials     =         881.80360489 eV    
  Monopole - monopole (real) =        -150.23469525 eV    
  Monopole - monopole (recip)=        -437.22720002 eV    
  Monopole - monopole (total)=        -587.46189526 eV    
  Pressure*volume            =         129.93249046 eV    
--------------------------------------------------------------------------------
  Total lattice enthalpy     =         424.27420009 eV    
--------------------------------------------------------------------------------
  Total lattice enthalpy     =           40935.9747 kJ/(mole unit cells)
--------------------------------------------------------------------------------


  Number of variables =       87

  Maximum number of calculations  =           850
  Maximum Hessian update interval =            10
  Maximum step size               =   1.000000000
  Maximum parameter tolerance     =   0.000010000
  Maximum function  tolerance     =   0.000010000
  Maximum gradient  tolerance     =   0.001000000
  Maximum gradient  component     =   0.010000000

  Cell parameters to be optimised using strains

  Conjugate gradient optimiser to be used

  Lower half triangular hessian to be used

  Minimiser to switch to RFO
  When gradient norm is less than     0.010000

  Start of bulk optimisation :

  Cycle:      0 Energy:       424.274200  Gnorm:    383.929979  CPU:    0.041
  Cycle:      1 Energy:        27.576359  Gnorm:     47.264318  CPU:    0.124
  Cycle:      2 Energy:      -342.786308  Gnorm:     19.132041  CPU:    0.248
  Cycle:      3 Energy:      -480.157474  Gnorm:      9.414884  CPU:    0.308
  Cycle:      4 Energy:      -533.493476  Gnorm:      4.892838  CPU:    0.379
  Cycle:      5 Energy:      -562.314112  Gnorm:      4.161229  CPU:    0.454
  Cycle:      6 Energy:      -581.535444  Gnorm:      3.221329  CPU:    0.527
  Cycle:      7 Energy:      -591.540212  Gnorm:      2.690922  CPU:    0.605
  Cycle:      8 Energy:      -599.896475  Gnorm:      2.034020  CPU:    0.680
  Cycle:      9 Energy:      -604.425228  Gnorm:      1.773531  CPU:    0.755
  Cycle:     10 Energy:      -606.278676  Gnorm:      1.253279  CPU:    0.817
  Cycle:     11 Energy:      -608.479711  Gnorm:      1.247410  CPU:    0.893
  Cycle:     12 Energy:      -611.671113  Gnorm:      1.228359  CPU:    0.993
  Cycle:     13 Energy:      -613.852969  Gnorm:      1.459129  CPU:    1.083
  Cycle:     14 Energy:      -615.772373  Gnorm:      1.335474  CPU:    1.172
  Cycle:     15 Energy:      -618.185341  Gnorm:      1.122728  CPU:    1.284
  Cycle:     16 Energy:      -620.171170  Gnorm:      1.237791  CPU:    1.394
  Cycle:     17 Energy:      -621.324119  Gnorm:      0.927497  CPU:    1.483
  Cycle:     18 Energy:      -622.536093  Gnorm:      0.822424  CPU:    1.594
  Cycle:     19 Energy:      -623.476050  Gnorm:      0.885891  CPU:    1.705
  Cycle:     20 Energy:      -623.923998  Gnorm:      0.654697  CPU:    1.795
  Cycle:     21 Energy:      -624.447211  Gnorm:      0.597703  CPU:    1.909
  Cycle:     22 Energy:      -625.061323  Gnorm:      0.763391  CPU:    2.064
  Cycle:     23 Energy:      -626.192302  Gnorm:      0.918227  CPU:    2.229
  Cycle:     24 Energy:      -627.702804  Gnorm:      1.189896  CPU:    2.362
  Cycle:     25 Energy:      -629.170507  Gnorm:      1.408442  CPU:    2.497
  Cycle:     26 Energy:      -630.956246  Gnorm:      1.207547  CPU:    2.589
  Cycle:     27 Energy:      -632.296279  Gnorm:      0.898541  CPU:    2.705
  Cycle:     28 Energy:      -633.096892  Gnorm:      0.929147  CPU:    2.821
  Cycle:     29 Energy:      -634.255349  Gnorm:      1.146122  CPU:    2.938
  Cycle:     30 Energy:      -634.996253  Gnorm:      0.811522  CPU:    3.033
  Cycle:     31 Energy:      -635.677314  Gnorm:      0.857132  CPU:    3.150
  Cycle:     32 Energy:      -637.001190  Gnorm:      0.854354  CPU:    3.268
  Cycle:     33 Energy:      -637.906971  Gnorm:      0.902878  CPU:    3.362
  Cycle:     34 Energy:      -638.773696  Gnorm:      0.872459  CPU:    3.456
  Cycle:     35 Energy:      -639.341165  Gnorm:      0.696498  CPU:    3.553
  Cycle:     36 Energy:      -639.810994  Gnorm:      0.587044  CPU:    3.668
  Cycle:     37 Energy:      -640.123379  Gnorm:      0.532494  CPU:    3.761
  Cycle:     38 Energy:      -640.381910  Gnorm:      0.476277  CPU:    3.877
  Cycle:     39 Energy:      -640.614266  Gnorm:      0.429286  CPU:    3.993
  Cycle:     40 Energy:      -640.727829  Gnorm:      0.348424  CPU:    4.086
  Cycle:     41 Energy:      -640.868397  Gnorm:      0.342875  CPU:    4.202
  Cycle:     42 Energy:      -640.982738  Gnorm:      0.313721  CPU:    4.295
  Cycle:     43 Energy:      -641.120785  Gnorm:      0.383471  CPU:    4.410
  Cycle:     44 Energy:      -641.339589  Gnorm:      0.473567  CPU:    4.526
  Cycle:     45 Energy:      -641.580886  Gnorm:      0.554645  CPU:    4.620
  Cycle:     46 Energy:      -641.962087  Gnorm:      0.579840  CPU:    4.736
  Cycle:     47 Energy:      -642.475542  Gnorm:      0.587398  CPU:    4.851
  Cycle:     48 Energy:      -642.812148  Gnorm:      0.593428  CPU:    4.945
  Cycle:     49 Energy:      -643.213288  Gnorm:      0.622982  CPU:    5.060
  Cycle:     50 Energy:      -643.425296  Gnorm:      0.482791  CPU:    5.154
  Cycle:     51 Energy:      -643.706796  Gnorm:      0.504818  CPU:    5.269
  Cycle:     52 Energy:      -644.011377  Gnorm:      0.441817  CPU:    5.387
  Cycle:     53 Energy:      -644.224342  Gnorm:      0.445724  CPU:    5.503
  Cycle:     54 Energy:      -644.419779  Gnorm:      0.412156  CPU:    5.620
  Cycle:     55 Energy:      -644.676900  Gnorm:      0.432592  CPU:    5.737
  Cycle:     56 Energy:      -644.884617  Gnorm:      0.457312  CPU:    5.832
  Cycle:     57 Energy:      -645.054370  Gnorm:      0.419110  CPU:    5.928
  Cycle:     58 Energy:      -645.265264  Gnorm:      0.334448  CPU:    6.046
  Cycle:     59 Energy:      -645.383624  Gnorm:      0.345377  CPU:    6.142
  Cycle:     60 Energy:      -645.442862  Gnorm:      0.241056  CPU:    6.237
  Cycle:     61 Energy:      -645.528604  Gnorm:      0.278089  CPU:    6.355
  Cycle:     62 Energy:      -645.618874  Gnorm:      0.286321  CPU:    6.450
  Cycle:     63 Energy:      -645.710139  Gnorm:      0.277902  CPU:    6.547
  Cycle:     64 Energy:      -645.787971  Gnorm:      0.227695  CPU:    6.665
  Cycle:     65 Energy:      -645.836632  Gnorm:      0.229073  CPU:    6.783
  Cycle:     66 Energy:      -645.906671  Gnorm:      0.243475  CPU:    6.901
  Cycle:     67 Energy:      -645.989833  Gnorm:      0.270137  CPU:    7.019
  Cycle:     68 Energy:      -646.058744  Gnorm:      0.261603  CPU:    7.115
  Cycle:     69 Energy:      -646.139230  Gnorm:      0.257115  CPU:    7.233
  Cycle:     70 Energy:      -646.194219  Gnorm:      0.215513  CPU:    7.331
  Cycle:     71 Energy:      -646.240052  Gnorm:      0.223618  CPU:    7.450
  Cycle:     72 Energy:      -646.298998  Gnorm:      0.221741  CPU:    7.571
  Cycle:     73 Energy:      -646.347639  Gnorm:      0.202387  CPU:    7.666
  Cycle:     74 Energy:      -646.387106  Gnorm:      0.174987  CPU:    7.762
  Cycle:     75 Energy:      -646.433931  Gnorm:      0.206232  CPU:    7.880
  Cycle:     76 Energy:      -646.477155  Gnorm:      0.212246  CPU:    7.975
  Cycle:     77 Energy:      -646.535616  Gnorm:      0.216317  CPU:    8.094
  Cycle:     78 Energy:      -646.595310  Gnorm:      0.207648  CPU:    8.213
  Cycle:     79 Energy:      -646.648861  Gnorm:      0.288316  CPU:    8.331
  Cycle:     80 Energy:      -646.687787  Gnorm:      0.176382  CPU:    8.427
  Cycle:     81 Energy:      -646.733394  Gnorm:      0.187119  CPU:    8.546
  Cycle:     82 Energy:      -646.779060  Gnorm:      0.194792  CPU:    8.642
  Cycle:     83 Energy:      -646.819975  Gnorm:      0.191232  CPU:    8.738
  Cycle:     84 Energy:      -646.856445  Gnorm:      0.157915  CPU:    8.859
  Cycle:     85 Energy:      -646.882717  Gnorm:      0.168901  CPU:    8.979
  Cycle:     86 Energy:      -646.918676  Gnorm:      0.175513  CPU:    9.074
  Cycle:     87 Energy:      -646.957262  Gnorm:      0.166991  CPU:    9.192
  Cycle:     88 Energy:      -646.987713  Gnorm:      0.196005  CPU:    9.288
  Cycle:     89 Energy:      -647.034742  Gnorm:      0.223955  CPU:    9.406
  Cycle:     90 Energy:      -647.071151  Gnorm:      0.172229  CPU:    9.502
  Cycle:     91 Energy:      -647.095966  Gnorm:      0.153359  CPU:    9.598
  Cycle:     92 Energy:      -647.128425  Gnorm:      0.160127  CPU:    9.717
  Cycle:     93 Energy:      -647.157537  Gnorm:      0.139787  CPU:    9.813
  Cycle:     94 Energy:      -647.176370  Gnorm:      0.133630  CPU:    9.909
  Cycle:     95 Energy:      -647.198098  Gnorm:      0.140560  CPU:   10.027
  Cycle:     96 Energy:      -647.220617  Gnorm:      0.141322  CPU:   10.147
  Cycle:     97 Energy:      -647.243244  Gnorm:      0.138144  CPU:   10.243
  Cycle:     98 Energy:      -647.268287  Gnorm:      0.132400  CPU:   10.362
  Cycle:     99 Energy:      -647.294946  Gnorm:      0.203968  CPU:   10.481
  Cycle:    100 Energy:      -647.314099  Gnorm:      0.115260  CPU:   10.577
  Cycle:    101 Energy:      -647.331790  Gnorm:      0.113738  CPU:   10.673
  Cycle:    102 Energy:      -647.347992  Gnorm:      0.109716  CPU:   10.769
  Cycle:    103 Energy:      -647.361980  Gnorm:      0.109001  CPU:   10.888
  Cycle:    104 Energy:      -647.374261  Gnorm:      0.093816  CPU:   10.983
  Cycle:    105 Energy:      -647.383735  Gnorm:      0.099065  CPU:   11.079
  Cycle:    106 Energy:      -647.395237  Gnorm:      0.097774  CPU:   11.198
  Cycle:    107 Energy:      -647.406325  Gnorm:      0.079180  CPU:   11.317
  Cycle:    108 Energy:      -647.416259  Gnorm:      0.097959  CPU:   11.438
  Cycle:    109 Energy:      -647.426113  Gnorm:      0.122913  CPU:   11.534
  Cycle:    110 Energy:      -647.433711  Gnorm:      0.081871  CPU:   11.630
  Cycle:    111 Energy:      -647.440453  Gnorm:      0.065856  CPU:   11.725
  Cycle:    112 Energy:      -647.447394  Gnorm:      0.072559  CPU:   11.823
  Cycle:    113 Energy:      -647.452914  Gnorm:      0.063154  CPU:   11.919
  Cycle:    114 Energy:      -647.457252  Gnorm:      0.061262  CPU:   12.015
  Cycle:    115 Energy:      -647.461923  Gnorm:      0.066458  CPU:   12.134
  Cycle:    116 Energy:      -647.465989  Gnorm:      0.057391  CPU:   12.230
  Cycle:    117 Energy:      -647.470091  Gnorm:      0.053913  CPU:   12.348
  Cycle:    118 Energy:      -647.474249  Gnorm:      0.051804  CPU:   12.468
  Cycle:    119 Energy:      -647.478602  Gnorm:      0.088393  CPU:   12.587
  Cycle:    120 Energy:      -647.481861  Gnorm:      0.044211  CPU:   12.683
  Cycle:    121 Energy:      -647.484832  Gnorm:      0.044421  CPU:   12.780
  Cycle:    122 Energy:      -647.487098  Gnorm:      0.041272  CPU:   12.876
  Cycle:    123 Energy:      -647.489090  Gnorm:      0.044162  CPU:   12.973
  Cycle:    124 Energy:      -647.491029  Gnorm:      0.038514  CPU:   13.070
  Cycle:    125 Energy:      -647.492615  Gnorm:      0.037274  CPU:   13.168
  Cycle:    126 Energy:      -647.494383  Gnorm:      0.037553  CPU:   13.286
  Cycle:    127 Energy:      -647.496101  Gnorm:      0.032718  CPU:   13.383
  Cycle:    128 Energy:      -647.497709  Gnorm:      0.037569  CPU:   13.480
  Cycle:    129 Energy:      -647.499124  Gnorm:      0.046818  CPU:   13.576
  Cycle:    130 Energy:      -647.500254  Gnorm:      0.033146  CPU:   13.672
  Cycle:    131 Energy:      -647.501475  Gnorm:      0.027999  CPU:   13.768
  Cycle:    132 Energy:      -647.502664  Gnorm:      0.029296  CPU:   13.864
  Cycle:    133 Energy:      -647.503595  Gnorm:      0.026455  CPU:   13.960
  Cycle:    134 Energy:      -647.504411  Gnorm:      0.026484  CPU:   14.055
  Cycle:    135 Energy:      -647.505320  Gnorm:      0.029521  CPU:   14.151
  Cycle:    136 Energy:      -647.506077  Gnorm:      0.024714  CPU:   14.248
  Cycle:    137 Energy:      -647.506856  Gnorm:      0.025152  CPU:   14.344
  Cycle:    138 Energy:      -647.507805  Gnorm:      0.023983  CPU:   14.441
  Cycle:    139 Energy:      -647.508841  Gnorm:      0.045340  CPU:   14.560
  Cycle:    140 Energy:      -647.509681  Gnorm:      0.022029  CPU:   14.656
  Cycle:    141 Energy:      -647.510419  Gnorm:      0.022078  CPU:   14.752
  Cycle:    142 Energy:      -647.510932  Gnorm:      0.019754  CPU:   14.849
  Cycle:    143 Energy:      -647.511389  Gnorm:      0.022171  CPU:   14.945
  Cycle:    144 Energy:      -647.511885  Gnorm:      0.019390  CPU:   15.041
  Cycle:    145 Energy:      -647.512313  Gnorm:      0.018522  CPU:   15.138
  Cycle:    146 Energy:      -647.512749  Gnorm:      0.019246  CPU:   15.234
  Cycle:    147 Energy:      -647.513235  Gnorm:      0.018459  CPU:   15.330
  Cycle:    148 Energy:      -647.513696  Gnorm:      0.021130  CPU:   15.427
  Cycle:    149 Energy:      -647.514112  Gnorm:      0.023651  CPU:   15.524
  Cycle:    150 Energy:      -647.514459  Gnorm:      0.019760  CPU:   15.620
  Cycle:    151 Energy:      -647.514883  Gnorm:      0.016862  CPU:   15.716
  Cycle:    152 Energy:      -647.515276  Gnorm:      0.017440  CPU:   15.836
  Cycle:    153 Energy:      -647.515598  Gnorm:      0.015480  CPU:   15.932
  Cycle:    154 Energy:      -647.515910  Gnorm:      0.016117  CPU:   16.028
  Cycle:    155 Energy:      -647.516243  Gnorm:      0.018543  CPU:   16.124
  Cycle:    156 Energy:      -647.516552  Gnorm:      0.015348  CPU:   16.221
  Cycle:    157 Energy:      -647.516857  Gnorm:      0.017375  CPU:   16.319
  Cycle:    158 Energy:      -647.517281  Gnorm:      0.016844  CPU:   16.415
  Cycle:    159 Energy:      -647.517790  Gnorm:      0.032117  CPU:   16.512
  Cycle:    160 Energy:      -647.518238  Gnorm:      0.016775  CPU:   16.608
  Cycle:    161 Energy:      -647.518598  Gnorm:      0.016283  CPU:   16.706
  Cycle:    162 Energy:      -647.518887  Gnorm:      0.013846  CPU:   16.802
  Cycle:    163 Energy:      -647.519117  Gnorm:      0.016441  CPU:   16.898
  Cycle:    164 Energy:      -647.519388  Gnorm:      0.013979  CPU:   16.994
  Cycle:    165 Energy:      -647.519629  Gnorm:      0.013568  CPU:   17.090
  Cycle:    166 Energy:      -647.519853  Gnorm:      0.014775  CPU:   17.188
  Cycle:    167 Energy:      -647.520150  Gnorm:      0.013856  CPU:   17.284
  Cycle:    168 Energy:      -647.520428  Gnorm:      0.017124  CPU:   17.380
  Cycle:    169 Energy:      -647.520678  Gnorm:      0.017875  CPU:   17.478
  Cycle:    170 Energy:      -647.520909  Gnorm:      0.016436  CPU:   17.575
  Cycle:    171 Energy:      -647.521167  Gnorm:      0.013546  CPU:   17.672
  Cycle:    172 Energy:      -647.521440  Gnorm:      0.014001  CPU:   17.770
  Cycle:    173 Energy:      -647.521646  Gnorm:      0.012618  CPU:   17.866
  Cycle:    174 Energy:      -647.521845  Gnorm:      0.013268  CPU:   17.964
  Cycle:    175 Energy:      -647.522101  Gnorm:      0.015415  CPU:   18.060
  Cycle:    176 Energy:      -647.522298  Gnorm:      0.013004  CPU:   18.156
  Cycle:    177 Energy:      -647.522533  Gnorm:      0.014577  CPU:   18.253
  Cycle:    178 Energy:      -647.522856  Gnorm:      0.015118  CPU:   18.349
  Cycle:    179 Energy:      -647.523293  Gnorm:      0.031836  CPU:   18.445
  Cycle:    180 Energy:      -647.523701  Gnorm:      0.014940  CPU:   18.543
  Cycle:    181 Energy:      -647.524011  Gnorm:      0.014363  CPU:   18.638
  Cycle:    182 Energy:      -647.524228  Gnorm:      0.012753  CPU:   18.736
  Cycle:    183 Energy:      -647.524408  Gnorm:      0.014285  CPU:   18.832
  Cycle:    184 Energy:      -647.524639  Gnorm:      0.012925  CPU:   18.931
  Cycle:    185 Energy:      -647.524824  Gnorm:      0.012015  CPU:   19.030
  Cycle:    186 Energy:      -647.525008  Gnorm:      0.013250  CPU:   19.127
  Cycle:    187 Energy:      -647.525258  Gnorm:      0.012647  CPU:   19.246
  Cycle:    188 Energy:      -647.525468  Gnorm:      0.015660  CPU:   19.343
  Cycle:    189 Energy:      -647.525686  Gnorm:      0.015712  CPU:   19.440
  Cycle:    190 Energy:      -647.525888  Gnorm:      0.015169  CPU:   19.537
  Cycle:    191 Energy:      -647.526093  Gnorm:      0.012624  CPU:   19.633
  Cycle:    192 Energy:      -647.526334  Gnorm:      0.013008  CPU:   19.729
  Cycle:    193 Energy:      -647.526515  Gnorm:      0.011799  CPU:   19.827
  Cycle:    194 Energy:      -647.526688  Gnorm:      0.012608  CPU:   19.926
  Cycle:    195 Energy:      -647.526917  Gnorm:      0.014475  CPU:   20.023
  Cycle:    196 Energy:      -647.527098  Gnorm:      0.012394  CPU:   20.119
  Cycle:    197 Energy:      -647.527305  Gnorm:      0.014293  CPU:   20.238
  Cycle:    198 Energy:      -647.527599  Gnorm:      0.014899  CPU:   20.336
  Cycle:    199 Energy:      -647.528007  Gnorm:      0.029981  CPU:   20.454
  Cycle:    200 Energy:      -647.528388  Gnorm:      0.015171  CPU:   20.550
  Cycle:    201 Energy:      -647.528678  Gnorm:      0.014356  CPU:   20.646
  Cycle:    202 Energy:      -647.528896  Gnorm:      0.012314  CPU:   20.742
  Cycle:    203 Energy:      -647.529073  Gnorm:      0.014333  CPU:   20.838
  Cycle:    204 Energy:      -647.529297  Gnorm:      0.012742  CPU:   20.934
  Cycle:    205 Energy:      -647.529480  Gnorm:      0.011931  CPU:   21.030
  Cycle:    206 Energy:      -647.529658  Gnorm:      0.013196  CPU:   21.128
  Cycle:    207 Energy:      -647.529908  Gnorm:      0.012527  CPU:   21.247
  Cycle:    208 Energy:      -647.530114  Gnorm:      0.015210  CPU:   21.368
  Cycle:    209 Energy:      -647.530324  Gnorm:      0.015737  CPU:   21.464
  Cycle:    210 Energy:      -647.530513  Gnorm:      0.014831  CPU:   21.562
  Cycle:    211 Energy:      -647.530723  Gnorm:      0.012630  CPU:   21.658
  Cycle:    212 Energy:      -647.530966  Gnorm:      0.013445  CPU:   21.755
  Cycle:    213 Energy:      -647.531154  Gnorm:      0.011843  CPU:   21.852
  Cycle:    214 Energy:      -647.531336  Gnorm:      0.013067  CPU:   21.970
  Cycle:    215 Energy:      -647.531571  Gnorm:      0.015114  CPU:   22.089
  Cycle:    216 Energy:      -647.531777  Gnorm:      0.012745  CPU:   22.185
  Cycle:    217 Energy:      -647.531994  Gnorm:      0.014998  CPU:   22.305
  Cycle:    218 Energy:      -647.532320  Gnorm:      0.015928  CPU:   22.401
  Cycle:    219 Energy:      -647.532783  Gnorm:      0.031462  CPU:   22.520
  Cycle:    220 Energy:      -647.533218  Gnorm:      0.016717  CPU:   22.617
  Cycle:    221 Energy:      -647.533555  Gnorm:      0.015387  CPU:   22.713
  Cycle:    222 Energy:      -647.533805  Gnorm:      0.013147  CPU:   22.810
  Cycle:    223 Energy:      -647.534014  Gnorm:      0.015636  CPU:   22.929
  Cycle:    224 Energy:      -647.534274  Gnorm:      0.013708  CPU:   23.025
  Cycle:    225 Energy:      -647.534486  Gnorm:      0.012971  CPU:   23.122
  Cycle:    226 Energy:      -647.534693  Gnorm:      0.014320  CPU:   23.218
  Cycle:    227 Energy:      -647.534992  Gnorm:      0.013475  CPU:   23.337
  Cycle:    228 Energy:      -647.535232  Gnorm:      0.016304  CPU:   23.433
  Cycle:    229 Energy:      -647.535466  Gnorm:      0.016927  CPU:   23.531
  Cycle:    230 Energy:      -647.535688  Gnorm:      0.015963  CPU:   23.627
  Cycle:    231 Energy:      -647.535925  Gnorm:      0.013859  CPU:   23.723
  Cycle:    232 Energy:      -647.536227  Gnorm:      0.014540  CPU:   23.818
  Cycle:    233 Energy:      -647.536460  Gnorm:      0.013297  CPU:   23.919
  Cycle:    234 Energy:      -647.536673  Gnorm:      0.014790  CPU:   24.014
  Cycle:    235 Energy:      -647.536998  Gnorm:      0.017232  CPU:   24.137
  Cycle:    236 Energy:      -647.537261  Gnorm:      0.014947  CPU:   24.232
  Cycle:    237 Energy:      -647.537552  Gnorm:      0.016748  CPU:   24.355
  Cycle:    238 Energy:      -647.538020  Gnorm:      0.019409  CPU:   24.452
  Cycle:    239 Energy:      -647.538665  Gnorm:      0.038685  CPU:   24.575
  Cycle:    240 Energy:      -647.539304  Gnorm:      0.020161  CPU:   24.671
  Cycle:    241 Energy:      -647.539827  Gnorm:      0.017671  CPU:   24.770
  Cycle:    242 Energy:      -647.540146  Gnorm:      0.016176  CPU:   24.866
  Cycle:    243 Energy:      -647.540465  Gnorm:      0.018744  CPU:   24.966
  Cycle:    244 Energy:      -647.540865  Gnorm:      0.016934  CPU:   25.064
  Cycle:    245 Energy:      -647.541153  Gnorm:      0.015500  CPU:   25.164
  Cycle:    246 Energy:      -647.541466  Gnorm:      0.016959  CPU:   25.261
  Cycle:    247 Energy:      -647.541901  Gnorm:      0.016783  CPU:   25.380
  Cycle:    248 Energy:      -647.542246  Gnorm:      0.019534  CPU:   25.476
  Cycle:    249 Energy:      -647.542589  Gnorm:      0.020698  CPU:   25.572
  Cycle:    250 Energy:      -647.542920  Gnorm:      0.019392  CPU:   25.668
  Cycle:    251 Energy:      -647.543280  Gnorm:      0.017540  CPU:   25.764
  Cycle:    252 Energy:      -647.543755  Gnorm:      0.017888  CPU:   25.883
  Cycle:    253 Energy:      -647.544125  Gnorm:      0.016801  CPU:   25.980
  Cycle:    254 Energy:      -647.544462  Gnorm:      0.018856  CPU:   26.076
  Cycle:    255 Energy:      -647.544998  Gnorm:      0.022242  CPU:   26.172
  Cycle:    256 Energy:      -647.545453  Gnorm:      0.019241  CPU:   26.269
  Cycle:    257 Energy:      -647.545909  Gnorm:      0.021517  CPU:   26.365
  Cycle:    258 Energy:      -647.546736  Gnorm:      0.026156  CPU:   26.462
  Cycle:    259 Energy:      -647.547950  Gnorm:      0.054208  CPU:   26.581
  Cycle:    260 Energy:      -647.549205  Gnorm:      0.028045  CPU:   26.678
  Cycle:    261 Energy:      -647.550202  Gnorm:      0.024404  CPU:   26.775
  Cycle:    262 Energy:      -647.550796  Gnorm:      0.022279  CPU:   26.871
  Cycle:    263 Energy:      -647.551428  Gnorm:      0.026311  CPU:   26.968
  Cycle:    264 Energy:      -647.552211  Gnorm:      0.023710  CPU:   27.064
  Cycle:    265 Energy:      -647.552768  Gnorm:      0.021893  CPU:   27.161
  Cycle:    266 Energy:      -647.553407  Gnorm:      0.023996  CPU:   27.256
  Cycle:    267 Energy:      -647.554296  Gnorm:      0.023990  CPU:   27.353
  Cycle:    268 Energy:      -647.554988  Gnorm:      0.027375  CPU:   27.452
  Cycle:    269 Energy:      -647.555687  Gnorm:      0.030303  CPU:   27.547
  Cycle:    270 Energy:      -647.556364  Gnorm:      0.027620  CPU:   27.643
  Cycle:    271 Energy:      -647.557112  Gnorm:      0.025433  CPU:   27.741
  Cycle:    272 Energy:      -647.558127  Gnorm:      0.026532  CPU:   27.862
  Cycle:    273 Energy:      -647.558964  Gnorm:      0.024644  CPU:   27.960
  Cycle:    274 Energy:      -647.559710  Gnorm:      0.028798  CPU:   28.056
  Cycle:    275 Energy:      -647.560944  Gnorm:      0.034303  CPU:   28.153
  Cycle:    276 Energy:      -647.562071  Gnorm:      0.029510  CPU:   28.249
  Cycle:    277 Energy:      -647.563145  Gnorm:      0.034118  CPU:   28.345
  Cycle:    278 Energy:      -647.565233  Gnorm:      0.042787  CPU:   28.441
  Cycle:    279 Energy:      -647.568846  Gnorm:      0.094533  CPU:   28.559
  Cycle:    280 Energy:      -647.572795  Gnorm:      0.049942  CPU:   28.656
  Cycle:    281 Energy:      -647.575698  Gnorm:      0.042872  CPU:   28.752
  Cycle:    282 Energy:      -647.577546  Gnorm:      0.037790  CPU:   28.847
  Cycle:    283 Energy:      -647.579513  Gnorm:      0.047366  CPU:   28.944
  Cycle:    284 Energy:      -647.581932  Gnorm:      0.041801  CPU:   29.040
  Cycle:    285 Energy:      -647.583680  Gnorm:      0.038504  CPU:   29.136
  Cycle:    286 Energy:      -647.585638  Gnorm:      0.043432  CPU:   29.231
  Cycle:    287 Energy:      -647.588406  Gnorm:      0.043664  CPU:   29.328
  Cycle:    288 Energy:      -647.590733  Gnorm:      0.047754  CPU:   29.426
  Cycle:    289 Energy:      -647.593040  Gnorm:      0.057121  CPU:   29.522
  Cycle:    290 Energy:      -647.595162  Gnorm:      0.048939  CPU:   29.620
  Cycle:    291 Energy:      -647.597771  Gnorm:      0.046095  CPU:   29.738
  Cycle:    292 Energy:      -647.600930  Gnorm:      0.050830  CPU:   29.835
  Cycle:    293 Energy:      -647.603848  Gnorm:      0.044810  CPU:   29.931
  Cycle:    294 Energy:      -647.606606  Gnorm:      0.055937  CPU:   30.029
  Cycle:    295 Energy:      -647.611784  Gnorm:      0.071214  CPU:   30.125
  Cycle:    296 Energy:      -647.616679  Gnorm:      0.060396  CPU:   30.222
  Cycle:    297 Energy:      -647.621325  Gnorm:      0.072614  CPU:   30.341
  Cycle:    298 Energy:      -647.631293  Gnorm:      0.098151  CPU:   30.461
  Cycle:    299 Energy:      -647.652606  Gnorm:      0.239363  CPU:   30.581
  Cycle:    300 Energy:      -647.676750  Gnorm:      0.118277  CPU:   30.676
  Cycle:    301 Energy:      -647.692099  Gnorm:      0.104777  CPU:   30.798
  Cycle:    302 Energy:      -647.702902  Gnorm:      0.087025  CPU:   30.895
  Cycle:    303 Energy:      -647.713902  Gnorm:      0.110315  CPU:   30.993
  Cycle:    304 Energy:      -647.728949  Gnorm:      0.099214  CPU:   31.114
  Cycle:    305 Energy:      -647.738538  Gnorm:      0.097045  CPU:   31.210
  Cycle:    306 Energy:      -647.750992  Gnorm:      0.112540  CPU:   31.307
  Cycle:    307 Energy:      -647.769542  Gnorm:      0.110147  CPU:   31.427
  Cycle:    308 Energy:      -647.783778  Gnorm:      0.126010  CPU:   31.523
  Cycle:    309 Energy:      -647.799609  Gnorm:      0.140927  CPU:   31.619
  Cycle:    310 Energy:      -647.815079  Gnorm:      0.127596  CPU:   31.714
  Cycle:    311 Energy:      -647.830525  Gnorm:      0.116743  CPU:   31.833
  Cycle:    312 Energy:      -647.851917  Gnorm:      0.131659  CPU:   31.930
  Cycle:    313 Energy:      -647.870917  Gnorm:      0.122209  CPU:   32.025
  Cycle:    314 Energy:      -647.886923  Gnorm:      0.142568  CPU:   32.144
  Cycle:    315 Energy:      -647.926163  Gnorm:      0.178331  CPU:   32.262
  Cycle:    316 Energy:      -647.963144  Gnorm:      0.154936  CPU:   32.358
  Cycle:    317 Energy:      -647.999272  Gnorm:      0.203634  CPU:   32.476
  Cycle:    318 Energy:      -648.059203  Gnorm:      0.248577  CPU:   32.595
  Cycle:    319 Energy:      -648.165339  Gnorm:      0.478867  CPU:   32.715
  Cycle:    320 Energy:      -648.257961  Gnorm:      0.229343  CPU:   32.811
  Cycle:    321 Energy:      -648.324268  Gnorm:      0.236246  CPU:   32.930
  Cycle:    322 Energy:      -648.381236  Gnorm:      0.200246  CPU:   33.028
  Cycle:    323 Energy:      -648.457773  Gnorm:      0.265990  CPU:   33.147
  Cycle:    324 Energy:      -648.532567  Gnorm:      0.203060  CPU:   33.242
  Cycle:    325 Energy:      -648.576822  Gnorm:      0.211091  CPU:   33.340
  Cycle:    326 Energy:      -648.627718  Gnorm:      0.230541  CPU:   33.461
  Cycle:    327 Energy:      -648.686439  Gnorm:      0.202248  CPU:   33.579
  Cycle:    328 Energy:      -648.734851  Gnorm:      0.203761  CPU:   33.697
  Cycle:    329 Energy:      -648.784664  Gnorm:      0.262012  CPU:   33.816
  Cycle:    330 Energy:      -648.824454  Gnorm:      0.188180  CPU:   33.912
  Cycle:    331 Energy:      -648.868009  Gnorm:      0.173628  CPU:   34.031
  Cycle:    332 Energy:      -648.917550  Gnorm:      0.193192  CPU:   34.150
  Cycle:    333 Energy:      -648.956738  Gnorm:      0.181692  CPU:   34.247
  Cycle:    334 Energy:      -648.991315  Gnorm:      0.210652  CPU:   34.366
  Cycle:    335 Energy:      -649.068855  Gnorm:      0.274341  CPU:   34.489
  Cycle:    336 Energy:      -649.156935  Gnorm:      0.205577  CPU:   34.584
  Cycle:    337 Energy:      -649.211434  Gnorm:      0.212612  CPU:   34.703
  Cycle:    338 Energy:      -649.260673  Gnorm:      0.197733  CPU:   34.799
  Cycle:    339 Energy:      -649.319475  Gnorm:      0.307344  CPU:   34.922
  Cycle:    340 Energy:      -649.362804  Gnorm:      0.178621  CPU:   35.018
  Cycle:    341 Energy:      -649.399787  Gnorm:      0.172926  CPU:   35.138
  Cycle:    342 Energy:      -649.431049  Gnorm:      0.148739  CPU:   35.234
  Cycle:    343 Energy:      -649.478053  Gnorm:      0.214090  CPU:   35.353
  Cycle:    344 Energy:      -649.519623  Gnorm:      0.141265  CPU:   35.449
  Cycle:    345 Energy:      -649.537380  Gnorm:      0.131564  CPU:   35.545
  Cycle:    346 Energy:      -649.554637  Gnorm:      0.132645  CPU:   35.664
  Cycle:    347 Energy:      -649.579625  Gnorm:      0.121461  CPU:   35.783
  Cycle:    348 Energy:      -649.598932  Gnorm:      0.127960  CPU:   35.902
  Cycle:    349 Energy:      -649.620344  Gnorm:      0.174471  CPU:   35.998
  Cycle:    350 Energy:      -649.635596  Gnorm:      0.110141  CPU:   36.095
  Cycle:    351 Energy:      -649.650324  Gnorm:      0.101887  CPU:   36.192
  Cycle:    352 Energy:      -649.665238  Gnorm:      0.107583  CPU:   36.289
  Cycle:    353 Energy:      -649.675701  Gnorm:      0.095976  CPU:   36.385
  Cycle:    354 Energy:      -649.685413  Gnorm:      0.100438  CPU:   36.505
  Cycle:    355 Energy:      -649.720055  Gnorm:      0.182954  CPU:   36.625
  Cycle:    356 Energy:      -649.761514  Gnorm:      0.161844  CPU:   36.724
  Cycle:    357 Energy:      -649.776995  Gnorm:      0.126259  CPU:   36.843
  Cycle:    358 Energy:      -649.799944  Gnorm:      0.104189  CPU:   36.964
  Cycle:    359 Energy:      -649.821735  Gnorm:      0.169718  CPU:   37.084
  Cycle:    360 Energy:      -649.835517  Gnorm:      0.089007  CPU:   37.181
  Cycle:    361 Energy:      -649.844090  Gnorm:      0.084905  CPU:   37.302
  Cycle:    362 Energy:      -649.850534  Gnorm:      0.073683  CPU:   37.400
  Cycle:    363 Energy:      -649.860321  Gnorm:      0.112112  CPU:   37.519
  Cycle:    364 Energy:      -649.877366  Gnorm:      0.107663  CPU:   37.639
  Cycle:    365 Energy:      -649.884993  Gnorm:      0.064782  CPU:   37.736
  Cycle:    366 Energy:      -649.888962  Gnorm:      0.061560  CPU:   37.856
  Cycle:    367 Energy:      -649.895911  Gnorm:      0.093794  CPU:   37.977
  Cycle:    368 Energy:      -649.906855  Gnorm:      0.095309  CPU:   38.074
  Cycle:    369 Energy:      -649.915669  Gnorm:      0.102406  CPU:   38.171
  Cycle:    370 Energy:      -649.920569  Gnorm:      0.059100  CPU:   38.268
  Cycle:    371 Energy:      -649.926875  Gnorm:      0.068924  CPU:   38.366
  Cycle:    372 Energy:      -649.930980  Gnorm:      0.047783  CPU:   38.463
  Cycle:    373 Energy:      -649.933765  Gnorm:      0.060009  CPU:   38.560
  Cycle:    374 Energy:      -649.938424  Gnorm:      0.074264  CPU:   38.658
  Cycle:    375 Energy:      -649.945267  Gnorm:      0.071427  CPU:   38.755
  Cycle:    376 Energy:      -649.952346  Gnorm:      0.083555  CPU:   38.875
  Cycle:    377 Energy:      -649.961895  Gnorm:      0.092063  CPU:   38.997
  Cycle:    378 Energy:      -649.968528  Gnorm:      0.064101  CPU:   39.093
  Cycle:    379 Energy:      -649.975046  Gnorm:      0.097195  CPU:   39.213
  Cycle:    380 Energy:      -649.979448  Gnorm:      0.051203  CPU:   39.310
  Cycle:    381 Energy:      -649.982736  Gnorm:      0.065905  CPU:   39.429
  Cycle:    382 Energy:      -649.988758  Gnorm:      0.071091  CPU:   39.550
  Cycle:    383 Energy:      -649.993180  Gnorm:      0.051769  CPU:   39.646
  Cycle:    384 Energy:      -649.996257  Gnorm:      0.050568  CPU:   39.744
  Cycle:    385 Energy:      -649.998889  Gnorm:      0.046431  CPU:   39.840
  Cycle:    386 Energy:      -650.000677  Gnorm:      0.033447  CPU:   39.936
  Cycle:    387 Energy:      -650.002412  Gnorm:      0.042413  CPU:   40.033
  Cycle:    388 Energy:      -650.004366  Gnorm:      0.036974  CPU:   40.130
  Cycle:    389 Energy:      -650.005889  Gnorm:      0.047600  CPU:   40.226
  Cycle:    390 Energy:      -650.006994  Gnorm:      0.030111  CPU:   40.323
  Cycle:    391 Energy:      -650.008383  Gnorm:      0.037717  CPU:   40.421
  Cycle:    392 Energy:      -650.009858  Gnorm:      0.034006  CPU:   40.518
  Cycle:    393 Energy:      -650.011124  Gnorm:      0.038564  CPU:   40.615
  Cycle:    394 Energy:      -650.013390  Gnorm:      0.042280  CPU:   40.712
  Cycle:    395 Energy:      -650.015140  Gnorm:      0.038971  CPU:   40.809
  Cycle:    396 Energy:      -650.017460  Gnorm:      0.046436  CPU:   40.906
  Cycle:    397 Energy:      -650.020598  Gnorm:      0.049206  CPU:   41.028
  Cycle:    398 Energy:      -650.022424  Gnorm:      0.037182  CPU:   41.125
  Cycle:    399 Energy:      -650.024549  Gnorm:      0.059133  CPU:   41.222
  Cycle:    400 Energy:      -650.026274  Gnorm:      0.031881  CPU:   41.318
  Cycle:    401 Energy:      -650.027426  Gnorm:      0.038334  CPU:   41.415
  Cycle:    402 Energy:      -650.029343  Gnorm:      0.040542  CPU:   41.512
  Cycle:    403 Energy:      -650.030937  Gnorm:      0.030445  CPU:   41.609
  Cycle:    404 Energy:      -650.031954  Gnorm:      0.030428  CPU:   41.705
  Cycle:    405 Energy:      -650.033043  Gnorm:      0.028883  CPU:   41.805
  Cycle:    406 Energy:      -650.033758  Gnorm:      0.022775  CPU:   41.901
  Cycle:    407 Energy:      -650.034446  Gnorm:      0.026333  CPU:   41.998
  Cycle:    408 Energy:      -650.035230  Gnorm:      0.021976  CPU:   42.096
  Cycle:    409 Energy:      -650.035780  Gnorm:      0.030494  CPU:   42.195
  Cycle:    410 Energy:      -650.036240  Gnorm:      0.020412  CPU:   42.293
  Cycle:    411 Energy:      -650.036896  Gnorm:      0.025004  CPU:   42.390
  Cycle:    412 Energy:      -650.037514  Gnorm:      0.022589  CPU:   42.486
  Cycle:    413 Energy:      -650.038084  Gnorm:      0.023977  CPU:   42.584
  Cycle:    414 Energy:      -650.038922  Gnorm:      0.026125  CPU:   42.680
  Cycle:    415 Energy:      -650.039582  Gnorm:      0.024298  CPU:   42.777
  Cycle:    416 Energy:      -650.040458  Gnorm:      0.027674  CPU:   42.874
  Cycle:    417 Energy:      -650.041530  Gnorm:      0.028730  CPU:   42.972
  Cycle:    418 Energy:      -650.042182  Gnorm:      0.023509  CPU:   43.070
  Cycle:    419 Energy:      -650.043001  Gnorm:      0.036234  CPU:   43.168
  Cycle:    420 Energy:      -650.043689  Gnorm:      0.021735  CPU:   43.265
  Cycle:    421 Energy:      -650.044199  Gnorm:      0.024116  CPU:   43.364
  Cycle:    422 Energy:      -650.044926  Gnorm:      0.025726  CPU:   43.461
  Cycle:    423 Energy:      -650.045627  Gnorm:      0.020548  CPU:   43.558
  Cycle:    424 Energy:      -650.046107  Gnorm:      0.020218  CPU:   43.655
  Cycle:    425 Energy:      -650.046572  Gnorm:      0.018764  CPU:   43.752
  Cycle:    426 Energy:      -650.046914  Gnorm:      0.016163  CPU:   43.849
  Cycle:    427 Energy:      -650.047259  Gnorm:      0.018286  CPU:   43.946
  Cycle:    428 Energy:      -650.047665  Gnorm:      0.014710  CPU:   44.044
  Cycle:    429 Energy:      -650.048008  Gnorm:      0.025622  CPU:   44.141
  Cycle:    430 Energy:      -650.048284  Gnorm:      0.014469  CPU:   44.240
  Cycle:    431 Energy:      -650.048639  Gnorm:      0.017061  CPU:   44.337
  Cycle:    432 Energy:      -650.048950  Gnorm:      0.015698  CPU:   44.436
  Cycle:    433 Energy:      -650.049199  Gnorm:      0.016189  CPU:   44.533
  Cycle:    434 Energy:      -650.049530  Gnorm:      0.016935  CPU:   44.631
  Cycle:    435 Energy:      -650.049890  Gnorm:      0.018052  CPU:   44.728
  Cycle:    436 Energy:      -650.050266  Gnorm:      0.018648  CPU:   44.826
  Cycle:    437 Energy:      -650.050741  Gnorm:      0.019823  CPU:   44.948
  Cycle:    438 Energy:      -650.051104  Gnorm:      0.015973  CPU:   45.047
  Cycle:    439 Energy:      -650.051423  Gnorm:      0.020789  CPU:   45.145
  Cycle:    440 Energy:      -650.051718  Gnorm:      0.014855  CPU:   45.242
  Cycle:    441 Energy:      -650.052030  Gnorm:      0.017335  CPU:   45.339
  Cycle:    442 Energy:      -650.052411  Gnorm:      0.016947  CPU:   45.436
  Cycle:    443 Energy:      -650.052713  Gnorm:      0.015516  CPU:   45.536
  Cycle:    444 Energy:      -650.052972  Gnorm:      0.013955  CPU:   45.634
  Cycle:    445 Energy:      -650.053203  Gnorm:      0.012502  CPU:   45.733
  Cycle:    446 Energy:      -650.053356  Gnorm:      0.013012  CPU:   45.831
  Cycle:    447 Energy:      -650.053549  Gnorm:      0.014056  CPU:   45.929
  Cycle:    448 Energy:      -650.053784  Gnorm:      0.010764  CPU:   46.029
  Cycle:    449 Energy:      -650.054090  Gnorm:      0.026812  CPU:   46.127
  Cycle:    450 Energy:      -650.054360  Gnorm:      0.010809  CPU:   46.223
  Cycle:    451 Energy:      -650.054526  Gnorm:      0.012752  CPU:   46.320
  Cycle:    452 Energy:      -650.054707  Gnorm:      0.011969  CPU:   46.418
  Cycle:    453 Energy:      -650.054866  Gnorm:      0.011386  CPU:   46.516
  Cycle:    454 Energy:      -650.055005  Gnorm:      0.012713  CPU:   46.612
  Cycle:    455 Energy:      -650.055196  Gnorm:      0.013356  CPU:   46.709
  Cycle:    456 Energy:      -650.055424  Gnorm:      0.013049  CPU:   46.806
  Cycle:    457 Energy:      -650.055659  Gnorm:      0.013411  CPU:   46.903
  Cycle:    458 Energy:      -650.055906  Gnorm:      0.013326  CPU:   47.000
  Cycle:    459 Energy:      -650.056041  Gnorm:      0.013563  CPU:   47.099
  Cycle:    460 Energy:      -650.056157  Gnorm:      0.012496  CPU:   47.197
  Cycle:    461 Energy:      -650.056377  Gnorm:      0.012300  CPU:   47.294
  Cycle:    462 Energy:      -650.056582  Gnorm:      0.013495  CPU:   47.391
  Cycle:    463 Energy:      -650.056767  Gnorm:      0.012149  CPU:   47.488
  Cycle:    464 Energy:      -650.056928  Gnorm:      0.011130  CPU:   47.586
  Cycle:    465 Energy:      -650.057042  Gnorm:      0.009085  CPU:   47.683
  ** Hessian has required structure
  Cycle:    466 Energy:      -650.061111  Gnorm:      0.008121  CPU:   47.996
  ** Hessian has required structure
  Cycle:    467 Energy:      -650.065818  Gnorm:      0.006941  CPU:   48.157
  ** Hessian has required structure
  Cycle:    468 Energy:      -650.071311  Gnorm:      0.005474  CPU:   48.318
  ** Hessian has required structure
  Cycle:    469 Energy:      -650.076956  Gnorm:      0.004483  CPU:   48.478
  ** Hessian has required structure
  Cycle:    470 Energy:      -650.080295  Gnorm:      0.005617  CPU:   48.615
  ** Hessian has required structure
  Cycle:    471 Energy:      -650.081077  Gnorm:      0.003512  CPU:   48.729
  ** Hessian has required structure
  Cycle:    472 Energy:      -650.081167  Gnorm:      0.001126  CPU:   48.844
  ** Hessian has required structure
  Cycle:    473 Energy:      -650.081171  Gnorm:      0.000267  CPU:   48.981
  ** Hessian has required structure


  **** Optimisation achieved ****


  Final enthalpy =    -650.08117088 eV      
  Final Gnorm    =       0.00003933

  Components of enthalpy : 

--------------------------------------------------------------------------------
  Interatomic potentials     =         220.24692325 eV    
  Monopole - monopole (real) =        -505.83622477 eV    
  Monopole - monopole (recip)=        -491.30259767 eV    
  Monopole - monopole (total)=        -997.13882244 eV    
  Pressure*volume            =         126.81072830 eV    
--------------------------------------------------------------------------------
  Total lattice enthalpy     =        -650.08117088 eV    
--------------------------------------------------------------------------------
  Total lattice enthalpy     =          -62722.8956 kJ/(mole unit cells)
--------------------------------------------------------------------------------

  Final fractional coordinates of atoms :

--------------------------------------------------------------------------------
   No.  Atomic        x           y          z          Radius
        Label       (Frac)      (Frac)     (Frac)       (Angs) 
--------------------------------------------------------------------------------
     1  Al    c     0.086912    0.455450    0.535624    0.000000
     2  Al    c     0.714838    0.029497    0.305219    0.000000
     3  Al    c     0.887107    0.770868    0.548444    0.000000
     4  Al    c     0.311463    0.112103    0.544222    0.000000
     5  Al    c     0.004136    0.174944    0.798789    0.000000
     6  Al    c     0.505894    0.857883    0.814097    0.000000
     7  Al    c     0.319985    0.603076    0.048434    0.000000
     8  Al    c     0.800874    0.519430    0.802538    0.000000
     9  Mg    c     0.104601    0.935491    0.076728    0.000000
    10  Mg    c     0.846618    0.682501    0.298990    0.000000
    11  Mg    c     0.061980    0.357751    0.289808    0.000000
    12  Mg    c     0.534038    0.281802    0.040397    0.000000
    13  O     c     0.382157    0.174319    0.356789    0.000000
    14  O     c     0.885430    0.141175    0.131240    0.000000
    15  O     c     0.100459    0.910959    0.298088    0.000000
    16  O     c     0.659430    0.961401    0.512958    0.000000
    17  O     c     0.313812    0.682936    0.465732    0.000000
    18  O     c     0.418431    0.734013    0.152753    0.000000
    19  O     c     0.686531    0.469702    0.142260    0.000000
    20  O     c     0.613486    0.447434    0.410297    0.000000
    21  O     c     0.231871    0.473444    0.923118    0.000000
    22  O     c     0.585433    0.490737    0.646845    0.000000
    23  O     c     0.328332    0.714536    0.705376    0.000000
    24  O     c     0.669504    0.995797    0.926515    0.000000
    25  O     c     0.147441    0.993725    0.724395    0.000000
    26  O     c     0.585788    0.273214    0.838048    0.000000
    27  O     c     0.913607    0.230598    0.598948    0.000000
    28  O     c     0.909909    0.721443    0.923687    0.000000
--------------------------------------------------------------------------------

  Final Cartesian lattice vectors (Angstroms) :

        2.349990   -1.290205    0.095928
        1.603528    8.310387    1.016241
        0.602921    0.998946    9.569217


  Final cell parameters and derivatives :

--------------------------------------------------------------------------------
       a            2.682589 Angstrom     dE/de1(xx)    -0.000371 eV/strain
       b            8.524469 Angstrom     dE/de2(yy)    -0.000031 eV/strain
       c            9.640089 Angstrom     dE/de3(zz)    -0.000192 eV/strain
       alpha       76.636697 Degrees      dE/de4(yz)    -0.000161 eV/strain
       beta        87.681943 Degrees      dE/de5(xz)    -0.000047 eV/strain
       gamma      107.447226 Degrees      dE/de6(xy)     0.000301 eV/strain
--------------------------------------------------------------------------------

  Primitive cell volume =           203.174754 Angs**3

  Density of cell =      4.651142 g/cm**3

  Non-primitive cell volume =           203.174754 Angs**3


  Final internal derivatives :

--------------------------------------------------------------------------------
   No.  Atomic          a             b             c           Radius
        Label          (eV)          (eV)          (eV)        (eV/Angs)
--------------------------------------------------------------------------------
      1 Al    c       0.000000      0.000000      0.000000      0.000000
      2 Al    c      -0.000065      0.000325      0.000596      0.000000
      3 Al    c      -0.000173      0.001237     -0.000674      0.000000
      4 Al    c       0.000013      0.000404      0.000166      0.000000
      5 Al    c       0.000127     -0.000259     -0.000062      0.000000
      6 Al    c      -0.000097      0.000013     -0.000035      0.000000
      7 Al    c      -0.000057      0.000105      0.000197      0.000000
      8 Al    c      -0.000033      0.000596     -0.001077      0.000000
      9 Mg    c      -0.000016      0.000178      0.000147      0.000000
     10 Mg    c       0.000017     -0.000398     -0.000195      0.000000
     11 Mg    c       0.000197     -0.000329     -0.000042      0.000000
     12 Mg    c       0.000065      0.000218     -0.000015      0.000000
     13 O     c       0.000077     -0.000326     -0.000316      0.000000
     14 O     c       0.000048     -0.000088      0.000175      0.000000
     15 O     c      -0.000045      0.000276      0.000288      0.000000
     16 O     c       0.000010     -0.001041     -0.000175      0.000000
     17 O     c       0.000043      0.000042      0.000160      0.000000
     18 O     c       0.000059      0.000255      0.000086      0.000000
     19 O     c       0.000006      0.000096      0.000104      0.000000
     20 O     c      -0.000121      0.000375      0.000917      0.000000
     21 O     c      -0.000076     -0.000370      0.000542      0.000000
     22 O     c      -0.000566      0.000929      0.000466      0.000000
     23 O     c       0.000296     -0.000697      0.000744      0.000000
     24 O     c      -0.000003     -0.000686     -0.000301      0.000000
     25 O     c      -0.000061      0.000170      0.000056      0.000000
     26 O     c      -0.000139      0.000013      0.000338      0.000000
     27 O     c       0.000027     -0.000454     -0.000196      0.000000
     28 O     c      -0.000015      0.000157     -0.000112      0.000000
--------------------------------------------------------------------------------
  Maximum abs         0.000566      0.001237      0.001077      0.000000
--------------------------------------------------------------------------------


  Time to end of optimisation =      49.0960 seconds


  Peak dynamic memory used =       2.03 MB 


  Timing analysis for GULP :

--------------------------------------------------------------------------------
  Task / Subroutine                                          Time (Seconds)
--------------------------------------------------------------------------------
  Calculation of reciprocal space energy and derivatives          1.5618
  Calculation of real space energy and derivatives               47.2689
  Calculation and manipulation of Hessian matrix                  0.1555
  Global summation overhead                                       0.0029
--------------------------------------------------------------------------------
  Total CPU time                                                 49.0961
--------------------------------------------------------------------------------


  Job Finished at 15:59.21 11th June       2024                               

