********************************************************************************
*                       GENERAL UTILITY LATTICE PROGRAM                        *
*                                 Julian Gale                                  *
*                       Curtin Institute for Computation                       *
*                    School of Molecular and Life Sciences                     *
*                    Curtin University, Western Australia                      *
********************************************************************************
* Version = 6.0.0 * Last modified =  12th July 2021                            *
********************************************************************************
*  optimise     - perform optimisation run                                     *
*  conp         - constant pressure calculation                                *
*  nosymmetry   - turn off symmetry after initial structure generation         *
*  conjugate    - use conjugate gradients minimiser                            *
********************************************************************************

  Job Started  at 16:02.02 11th June       2024                               

  Number of CPUs =     1


  Total number of configurations input =      1

********************************************************************************
*  Input for Configuration =   1                                               *
********************************************************************************

  Formula = Al8Mg4O16                                                   

  Number of irreducible atoms/shells =      28


  Total number atoms/shells =      28

  Dimensionality = 3               :  Bulk   



  Cartesian lattice vectors (Angstroms) :

        4.199229   -1.038399    0.680266
       -0.091500    7.437751   -0.061601
        1.598601   -1.649739    6.952532

  Cell parameters (Angstroms/Degrees):

  a =       4.3789    alpha = 103.6405
  b =       7.4386    beta  =  65.7762
  c =       7.3222    gamma = 104.4890

  Initial cell volume =         208.176407 Angs**3

  Temperature of configuration =   0.00     K 

  Pressure of configuration =       100.000 GPa 

  Fractional coordinates of asymmetric unit :

--------------------------------------------------------------------------------
   No.  Atomic       x           y          z         Charge      Occupancy
        Label      (Frac)      (Frac)     (Frac)        (e)         (Frac)  
--------------------------------------------------------------------------------
      1 Al    c    0.042305    0.042304    0.352433     3.00000    1.000000    
      2 Al    c    0.625889 *  0.681536 *  0.366880 *   3.00000    1.000000    
      3 Al    c    0.734901 *  0.189970 *  0.164273 *   3.00000    1.000000    
      4 Al    c    0.843478 *  0.468020 *  0.563802 *   3.00000    1.000000    
      5 Al    c    0.137047 *  0.400693 *  0.666579 *   3.00000    1.000000    
      6 Al    c    0.165461 *  0.603305 *  0.832017 *   3.00000    1.000000    
      7 Al    c    0.556279 *  0.212509 *  0.832018 *   3.00000    1.000000    
      8 Al    c    0.597091 *  0.804025 *  0.837846 *   3.00000    1.000000    
      9 Mg    c    0.213780 *  0.090016 *  0.571387 *   2.00000    1.000000    
     10 Mg    c    0.129307 *  0.570291 *  0.157796 *   2.00000    1.000000    
     11 Mg    c    0.746248 *  0.009892 *  0.666584 *   2.00000    1.000000    
     12 Mg    c    0.206296 *  0.194825 *  0.837852 *   2.00000    1.000000    
     13 O     c    0.031680 *  0.847634 *  0.156627 *  -2.00000    1.000000    
     14 O     c    0.451901 *  0.284090 *  0.165134 *  -2.00000    1.000000    
     15 O     c    0.467975 *  0.899980 *  0.005585 *  -2.00000    1.000000    
     16 O     c    0.024903 *  0.856610 *  0.455864 *  -2.00000    1.000000    
     17 O     c    0.463953 *  0.273295 *  0.447183 *  -2.00000    1.000000    
     18 O     c    0.081961 *  0.274698 *  0.601978 *  -2.00000    1.000000    
     19 O     c    0.408554 *  0.840560 *  0.614784 *  -2.00000    1.000000    
     20 O     c    0.038371 *  0.230574 *  0.311506 *  -2.00000    1.000000    
     21 O     c    0.464665 *  0.893878 *  0.308128 *  -2.00000    1.000000    
     22 O     c    0.273050 *  0.888854 *  0.092256 *  -2.00000    1.000000    
     23 O     c    0.078897 *  0.194131 *  0.035012 *  -2.00000    1.000000    
     24 O     c    0.911308 *  0.868163 *  0.148762 *  -2.00000    1.000000    
     25 O     c    0.302093 *  0.258960 *  0.148767 *  -2.00000    1.000000    
     26 O     c    0.882238 *  0.279657 *  0.092234 *  -2.00000    1.000000    
     27 O     c    0.162761 *  0.003595 *  0.858154 *  -2.00000    1.000000    
     28 O     c    0.688086 *  0.584934 *  0.035009 *  -2.00000    1.000000    
--------------------------------------------------------------------------------



********************************************************************************
*  General input information                                                   *
********************************************************************************

  Species output for all configurations : 

--------------------------------------------------------------------------------
  Species    Type    Atomic    Atomic    Charge       Radii (Angs)     Library
                     Number     Mass       (e)     Cova   Ionic  VDW   Symbol
--------------------------------------------------------------------------------
    Mg       Core       12      24.31   2.000000   1.100  0.000  1.640          
    Al       Core       13      26.98   3.000000   1.350  0.000  2.050          
    O        Core        8      16.00  -2.000000   0.730  0.000  1.360          
--------------------------------------------------------------------------------


  Lattice summation method               =    Ewald          (3-D)
                                         =    Parry          (2-D)
                                         =    Saunders et al (1-D)
  Accuracy factor for lattice sums       =   12.000


  Analytic derivatives to be used

  Time limit = Infinity

  Maximum range for interatomic potentials =    100000.000000 Angstroms

  General interatomic potentials :

--------------------------------------------------------------------------------
Atom  Types   Potential      Parameter       Value         Units   Cutoffs(Ang)
  1     2                                                            Min /  Max 
--------------------------------------------------------------------------------
O    c Mg   c Lennard       Lennard-Jones A  1.5000000    eV*Ang^m  0.000  6.000
                            Lennard-Jones B  0.0000000    eV*Ang^n  
                            Exponent m        12          None
                            Exponent n         6          None
--------------------------------------------------------------------------------
O    c Al   c Lennard       Lennard-Jones A  1.5000000    eV*Ang^m  0.000  6.000
                            Lennard-Jones B  0.0000000    eV*Ang^n  
                            Exponent m        12          None
                            Exponent n         6          None
--------------------------------------------------------------------------------
O    c O    c Lennard       Lennard-Jones A  1.5000000    eV*Ang^m  0.000  6.000
                            Lennard-Jones B  0.0000000    eV*Ang^n  
                            Exponent m        12          None
                            Exponent n         6          None
--------------------------------------------------------------------------------
Mg   c Mg   c Lennard       Lennard-Jones A  1.5000000    eV*Ang^m  0.000  6.000
                            Lennard-Jones B  0.0000000    eV*Ang^n  
                            Exponent m        12          None
                            Exponent n         6          None
--------------------------------------------------------------------------------
Mg   c Al   c Lennard       Lennard-Jones A  1.5000000    eV*Ang^m  0.000  6.000
                            Lennard-Jones B  0.0000000    eV*Ang^n  
                            Exponent m        12          None
                            Exponent n         6          None
--------------------------------------------------------------------------------
Al   c Al   c Lennard       Lennard-Jones A  1.5000000    eV*Ang^m  0.000  6.000
                            Lennard-Jones B  0.0000000    eV*Ang^n  
                            Exponent m        12          None
                            Exponent n         6          None
--------------------------------------------------------------------------------
O    c Mg   c Buckingham    Buckingham A     1428.5000    eV        0.000  7.000
                            Buckingham rho  0.29450000    Ang       
                            Buckingham C     0.0000000    eV*Ang^6  
--------------------------------------------------------------------------------
O    c Al   c Buckingham    Buckingham A     1114.9000    eV        0.000  7.000
                            Buckingham rho  0.31180000    Ang       
                            Buckingham C     0.0000000    eV*Ang^6  
--------------------------------------------------------------------------------
O    c O    c Buckingham    Buckingham A     2023.8000    eV        0.000  7.000
                            Buckingham rho  0.26740000    Ang       
                            Buckingham C     0.0000000    eV*Ang^6  
--------------------------------------------------------------------------------

********************************************************************************
*  Output for configuration   1                                                *
********************************************************************************


  Components of enthalpy : 

--------------------------------------------------------------------------------
  Interatomic potentials     =        1604.73826082 eV    
  Monopole - monopole (real) =           6.10979028 eV    
  Monopole - monopole (recip)=        -361.10819459 eV    
  Monopole - monopole (total)=        -354.99840431 eV    
  Pressure*volume            =         129.93249045 eV    
--------------------------------------------------------------------------------
  Total lattice enthalpy     =        1379.67234696 eV    
--------------------------------------------------------------------------------
  Total lattice enthalpy     =          133117.2913 kJ/(mole unit cells)
--------------------------------------------------------------------------------


  Number of variables =       87

  Maximum number of calculations  =           850
  Maximum Hessian update interval =            10
  Maximum step size               =   1.000000000
  Maximum parameter tolerance     =   0.000010000
  Maximum function  tolerance     =   0.000010000
  Maximum gradient  tolerance     =   0.001000000
  Maximum gradient  component     =   0.010000000

  Cell parameters to be optimised using strains

  Conjugate gradient optimiser to be used

  Lower half triangular hessian to be used

  Minimiser to switch to RFO
  When gradient norm is less than     0.010000

  Start of bulk optimisation :

  Cycle:      0 Energy:      1379.672347  Gnorm:   1306.609921  CPU:    0.082
  Cycle:      1 Energy:         9.543892  Gnorm:     45.197919  CPU:    0.378
  Cycle:      2 Energy:      -230.312449  Gnorm:     21.915758  CPU:    0.625
  Cycle:      3 Energy:      -427.814889  Gnorm:     11.253677  CPU:    1.033
  Cycle:      4 Energy:      -522.150575  Gnorm:      6.454972  CPU:    1.264
  Cycle:      5 Energy:      -554.061131  Gnorm:      5.010201  CPU:    1.517
  Cycle:      6 Energy:      -568.260263  Gnorm:      4.337000  CPU:    1.787
  Cycle:      7 Energy:      -582.350263  Gnorm:      2.994076  CPU:    1.981
  Cycle:      8 Energy:      -592.988218  Gnorm:      2.964494  CPU:    2.170
  Cycle:      9 Energy:      -603.555202  Gnorm:      2.385780  CPU:    2.325
  Cycle:     10 Energy:      -609.403625  Gnorm:      1.444604  CPU:    2.489
  Cycle:     11 Energy:      -616.093891  Gnorm:      2.001757  CPU:    2.677
  Cycle:     12 Energy:      -620.397383  Gnorm:      1.563425  CPU:    2.805
  Cycle:     13 Energy:      -623.702121  Gnorm:      1.126488  CPU:    2.991
  Cycle:     14 Energy:      -625.565142  Gnorm:      0.806252  CPU:    3.189
  Cycle:     15 Energy:      -627.004461  Gnorm:      0.722442  CPU:    3.452
  Cycle:     16 Energy:      -627.707369  Gnorm:      0.551571  CPU:    3.647
  Cycle:     17 Energy:      -628.296431  Gnorm:      0.543455  CPU:    3.823
  Cycle:     18 Energy:      -628.755966  Gnorm:      0.456549  CPU:    3.961
  Cycle:     19 Energy:      -629.173138  Gnorm:      0.453759  CPU:    4.130
  Cycle:     20 Energy:      -629.399486  Gnorm:      0.318766  CPU:    4.259
  Cycle:     21 Energy:      -629.612176  Gnorm:      0.337946  CPU:    4.390
  Cycle:     22 Energy:      -629.798730  Gnorm:      0.329435  CPU:    4.519
  Cycle:     23 Energy:      -630.081411  Gnorm:      0.375436  CPU:    4.679
  Cycle:     24 Energy:      -630.401262  Gnorm:      0.378472  CPU:    4.809
  Cycle:     25 Energy:      -630.784448  Gnorm:      0.406089  CPU:    4.970
  Cycle:     26 Energy:      -631.135370  Gnorm:      0.429554  CPU:    5.100
  Cycle:     27 Energy:      -631.415312  Gnorm:      0.402743  CPU:    5.236
  Cycle:     28 Energy:      -631.679295  Gnorm:      0.384872  CPU:    5.399
  Cycle:     29 Energy:      -631.987904  Gnorm:      0.395039  CPU:    5.561
  Cycle:     30 Energy:      -632.174079  Gnorm:      0.350411  CPU:    5.692
  Cycle:     31 Energy:      -632.533930  Gnorm:      0.469834  CPU:    5.855
  Cycle:     32 Energy:      -632.863007  Gnorm:      0.400700  CPU:    5.984
  Cycle:     33 Energy:      -633.275068  Gnorm:      0.438704  CPU:    6.145
  Cycle:     34 Energy:      -633.680460  Gnorm:      0.451835  CPU:    6.274
  Cycle:     35 Energy:      -634.121409  Gnorm:      0.548890  CPU:    6.432
  Cycle:     36 Energy:      -634.625284  Gnorm:      0.543529  CPU:    6.559
  Cycle:     37 Energy:      -635.262306  Gnorm:      0.501688  CPU:    6.715
  Cycle:     38 Energy:      -635.867213  Gnorm:      0.537093  CPU:    6.870
  Cycle:     39 Energy:      -636.689470  Gnorm:      0.730259  CPU:    7.024
  Cycle:     40 Energy:      -637.256017  Gnorm:      0.546728  CPU:    7.148
  Cycle:     41 Energy:      -637.834712  Gnorm:      0.506432  CPU:    7.302
  Cycle:     42 Energy:      -638.376093  Gnorm:      0.584269  CPU:    7.455
  Cycle:     43 Energy:      -639.052126  Gnorm:      0.479522  CPU:    7.609
  Cycle:     44 Energy:      -639.855171  Gnorm:      0.662927  CPU:    7.763
  Cycle:     45 Energy:      -640.720181  Gnorm:      0.586471  CPU:    7.887
  Cycle:     46 Energy:      -641.391448  Gnorm:      0.584526  CPU:    8.010
  Cycle:     47 Energy:      -641.982102  Gnorm:      0.585146  CPU:    8.134
  Cycle:     48 Energy:      -642.680644  Gnorm:      0.476648  CPU:    8.286
  Cycle:     49 Energy:      -643.211532  Gnorm:      0.482718  CPU:    8.437
  Cycle:     50 Energy:      -643.525710  Gnorm:      0.373723  CPU:    8.560
  Cycle:     51 Energy:      -643.982237  Gnorm:      0.395222  CPU:    8.711
  Cycle:     52 Energy:      -644.324696  Gnorm:      0.391849  CPU:    8.833
  Cycle:     53 Energy:      -644.677890  Gnorm:      0.427847  CPU:    8.983
  Cycle:     54 Energy:      -645.088229  Gnorm:      0.400410  CPU:    9.133
  Cycle:     55 Energy:      -645.420819  Gnorm:      0.329318  CPU:    9.283
  Cycle:     56 Energy:      -645.745111  Gnorm:      0.317400  CPU:    9.432
  Cycle:     57 Energy:      -645.948670  Gnorm:      0.288780  CPU:    9.552
  Cycle:     58 Energy:      -646.141494  Gnorm:      0.247571  CPU:    9.701
  Cycle:     59 Energy:      -646.297764  Gnorm:      0.243098  CPU:    9.849
  Cycle:     60 Energy:      -646.374764  Gnorm:      0.185752  CPU:    9.969
  Cycle:     61 Energy:      -646.475824  Gnorm:      0.185166  CPU:   10.117
  Cycle:     62 Energy:      -646.545166  Gnorm:      0.171115  CPU:   10.237
  Cycle:     63 Energy:      -646.642113  Gnorm:      0.189601  CPU:   10.385
  Cycle:     64 Energy:      -646.726826  Gnorm:      0.214297  CPU:   10.503
  Cycle:     65 Energy:      -646.852404  Gnorm:      0.230205  CPU:   10.650
  Cycle:     66 Energy:      -646.992646  Gnorm:      0.225396  CPU:   10.798
  Cycle:     67 Energy:      -647.144599  Gnorm:      0.231348  CPU:   10.943
  Cycle:     68 Energy:      -647.285545  Gnorm:      0.242984  CPU:   11.060
  Cycle:     69 Energy:      -647.426120  Gnorm:      0.249923  CPU:   11.215
  Cycle:     70 Energy:      -647.494735  Gnorm:      0.168870  CPU:   11.332
  Cycle:     71 Energy:      -647.565581  Gnorm:      0.143116  CPU:   11.480
  Cycle:     72 Energy:      -647.619927  Gnorm:      0.112486  CPU:   11.629
  Cycle:     73 Energy:      -647.648855  Gnorm:      0.105261  CPU:   11.749
  Cycle:     74 Energy:      -647.674908  Gnorm:      0.100588  CPU:   11.870
  Cycle:     75 Energy:      -647.702956  Gnorm:      0.105642  CPU:   12.017
  Cycle:     76 Energy:      -647.746579  Gnorm:      0.126478  CPU:   12.174
  Cycle:     77 Energy:      -647.793130  Gnorm:      0.148326  CPU:   12.291
  Cycle:     78 Energy:      -647.850411  Gnorm:      0.148612  CPU:   12.411
  Cycle:     79 Energy:      -647.908394  Gnorm:      0.180001  CPU:   12.561
  Cycle:     80 Energy:      -647.942278  Gnorm:      0.108677  CPU:   12.678
  Cycle:     81 Energy:      -647.973103  Gnorm:      0.103453  CPU:   12.822
  Cycle:     82 Energy:      -647.997315  Gnorm:      0.093855  CPU:   12.938
  Cycle:     83 Energy:      -648.019417  Gnorm:      0.081318  CPU:   13.082
  Cycle:     84 Energy:      -648.036350  Gnorm:      0.076788  CPU:   13.226
  Cycle:     85 Energy:      -648.050199  Gnorm:      0.070802  CPU:   13.343
  Cycle:     86 Energy:      -648.062676  Gnorm:      0.071232  CPU:   13.487
  Cycle:     87 Energy:      -648.079623  Gnorm:      0.071191  CPU:   13.637
  Cycle:     88 Energy:      -648.095863  Gnorm:      0.069796  CPU:   13.781
  Cycle:     89 Energy:      -648.113279  Gnorm:      0.096449  CPU:   13.925
  Cycle:     90 Energy:      -648.124350  Gnorm:      0.054647  CPU:   14.042
  Cycle:     91 Energy:      -648.133387  Gnorm:      0.054964  CPU:   14.186
  Cycle:     92 Energy:      -648.140698  Gnorm:      0.055331  CPU:   14.302
  Cycle:     93 Energy:      -648.146786  Gnorm:      0.050442  CPU:   14.422
  Cycle:     94 Energy:      -648.154327  Gnorm:      0.053990  CPU:   14.543
  Cycle:     95 Energy:      -648.161511  Gnorm:      0.049602  CPU:   14.663
  Cycle:     96 Energy:      -648.169899  Gnorm:      0.052627  CPU:   14.811
  Cycle:     97 Energy:      -648.177305  Gnorm:      0.048700  CPU:   14.931
  Cycle:     98 Energy:      -648.183427  Gnorm:      0.047442  CPU:   15.079
  Cycle:     99 Energy:      -648.188565  Gnorm:      0.051344  CPU:   15.201
  Cycle:    100 Energy:      -648.192448  Gnorm:      0.040064  CPU:   15.321
  Cycle:    101 Energy:      -648.196675  Gnorm:      0.038074  CPU:   15.469
  Cycle:    102 Energy:      -648.200874  Gnorm:      0.038114  CPU:   15.589
  Cycle:    103 Energy:      -648.205040  Gnorm:      0.034595  CPU:   15.737
  Cycle:    104 Energy:      -648.208280  Gnorm:      0.033985  CPU:   15.857
  Cycle:    105 Energy:      -648.210826  Gnorm:      0.029852  CPU:   15.977
  Cycle:    106 Energy:      -648.212860  Gnorm:      0.031050  CPU:   16.097
  Cycle:    107 Energy:      -648.215024  Gnorm:      0.027837  CPU:   16.217
  Cycle:    108 Energy:      -648.217245  Gnorm:      0.026385  CPU:   16.365
  Cycle:    109 Energy:      -648.219604  Gnorm:      0.038604  CPU:   16.485
  Cycle:    110 Energy:      -648.221421  Gnorm:      0.022607  CPU:   16.605
  Cycle:    111 Energy:      -648.222973  Gnorm:      0.021810  CPU:   16.725
  Cycle:    112 Energy:      -648.224222  Gnorm:      0.022575  CPU:   16.845
  Cycle:    113 Energy:      -648.225306  Gnorm:      0.021779  CPU:   16.966
  Cycle:    114 Energy:      -648.226538  Gnorm:      0.022301  CPU:   17.086
  Cycle:    115 Energy:      -648.227758  Gnorm:      0.021070  CPU:   17.206
  Cycle:    116 Energy:      -648.229135  Gnorm:      0.021194  CPU:   17.326
  Cycle:    117 Energy:      -648.230229  Gnorm:      0.019306  CPU:   17.446
  Cycle:    118 Energy:      -648.231155  Gnorm:      0.018288  CPU:   17.593
  Cycle:    119 Energy:      -648.231899  Gnorm:      0.018523  CPU:   17.713
  Cycle:    120 Energy:      -648.232515  Gnorm:      0.016212  CPU:   17.833
  Cycle:    121 Energy:      -648.233199  Gnorm:      0.015659  CPU:   17.950
  Cycle:    122 Energy:      -648.233860  Gnorm:      0.015678  CPU:   18.066
  Cycle:    123 Energy:      -648.234559  Gnorm:      0.014405  CPU:   18.182
  Cycle:    124 Energy:      -648.235089  Gnorm:      0.013505  CPU:   18.298
  Cycle:    125 Energy:      -648.235533  Gnorm:      0.011965  CPU:   18.415
  Cycle:    126 Energy:      -648.235881  Gnorm:      0.012458  CPU:   18.531
  Cycle:    127 Energy:      -648.236204  Gnorm:      0.011536  CPU:   18.648
  Cycle:    128 Energy:      -648.236565  Gnorm:      0.010777  CPU:   18.764
  Cycle:    129 Energy:      -648.236929  Gnorm:      0.015621  CPU:   18.881
  Cycle:    130 Energy:      -648.237231  Gnorm:      0.009419  CPU:   18.997
  ** Hessian has required structure
  Cycle:    131 Energy:      -648.239484  Gnorm:      0.005028  CPU:   19.333
  ** Hessian has required structure
  Cycle:    132 Energy:      -648.240353  Gnorm:      0.000262  CPU:   19.500
  ** Hessian has required structure


  **** Optimisation achieved ****


  Final enthalpy =    -648.24035353 eV      
  Final Gnorm    =       0.00000790

  Components of enthalpy : 

--------------------------------------------------------------------------------
  Interatomic potentials     =         227.09342596 eV    
  Monopole - monopole (real) =        -518.51982728 eV    
  Monopole - monopole (recip)=        -487.05247243 eV    
  Monopole - monopole (total)=       -1005.57229970 eV    
  Pressure*volume            =         130.23852021 eV    
--------------------------------------------------------------------------------
  Total lattice enthalpy     =        -648.24035353 eV    
--------------------------------------------------------------------------------
  Total lattice enthalpy     =          -62545.2849 kJ/(mole unit cells)
--------------------------------------------------------------------------------

  Final fractional coordinates of atoms :

--------------------------------------------------------------------------------
   No.  Atomic        x           y          z          Radius
        Label       (Frac)      (Frac)     (Frac)       (Angs) 
--------------------------------------------------------------------------------
     1  Al    c     0.042305    0.042304    0.352433    0.000000
     2  Al    c     0.546416    0.540048    0.345452    0.000000
     3  Al    c     0.566948    0.889152    0.208206    0.000000
     4  Al    c     0.513257    0.191521    0.503984    0.000000
     5  Al    c     0.072320    0.385607    0.706836    0.000000
     6  Al    c     0.025074    0.705117    0.993996    0.000000
     7  Al    c     0.489352    0.182748    0.993313    0.000000
     8  Al    c     0.544387    0.541143    0.851772    0.000000
     9  Mg    c     0.015810    0.688649    0.502410    0.000000
    10  Mg    c     0.063601    0.391375    0.197182    0.000000
    11  Mg    c     0.587361    0.887382    0.697346    0.000000
    12  Mg    c     0.029157    0.037193    0.847709    0.000000
    13  O     c     0.168817    0.493198    0.476089    0.000000
    14  O     c     0.410624    0.269504    0.255280    0.000000
    15  O     c     0.287426    0.939394    0.389832    0.000000
    16  O     c     0.579381    0.448315    0.573384    0.000000
    17  O     c     0.460037    0.096890    0.729328    0.000000
    18  O     c     0.027679    0.142077    0.608446    0.000000
    19  O     c     0.295772    0.644492    0.820848    0.000000
    20  O     c     0.797642    0.146073    0.323145    0.000000
    21  O     c     0.693492    0.812973    0.418126    0.000000
    22  O     c     0.931324    0.595239    0.220114    0.000000
    23  O     c     0.094040    0.957843    0.084482    0.000000
    24  O     c     0.626057    0.003112    0.990722    0.000000
    25  O     c     0.219474    0.321501    0.922529    0.000000
    26  O     c     0.775067    0.413454    0.889941    0.000000
    27  O     c     0.883087    0.750796    0.786655    0.000000
    28  O     c     0.517031    0.638830    0.121338    0.000000
--------------------------------------------------------------------------------

  Final Cartesian lattice vectors (Angstroms) :

        4.880848   -1.502146    0.187796
       -1.096109    7.051333    0.433776
        1.401678   -1.324241    6.358257


  Final cell parameters and derivatives :

--------------------------------------------------------------------------------
       a            5.110224 Angstrom     dE/de1(xx)     0.000052 eV/strain
       b            7.149190 Angstrom     dE/de2(yy)     0.000030 eV/strain
       c            6.644227 Angstrom     dE/de3(zz)     0.000020 eV/strain
       alpha       99.837821 Degrees      dE/de4(yz)     0.000005 eV/strain
       beta        72.827708 Degrees      dE/de5(xz)     0.000036 eV/strain
       gamma      115.730164 Degrees      dE/de6(xy)     0.000159 eV/strain
--------------------------------------------------------------------------------

  Primitive cell volume =           208.666725 Angs**3

  Density of cell =      4.528727 g/cm**3

  Non-primitive cell volume =           208.666725 Angs**3


  Final internal derivatives :

--------------------------------------------------------------------------------
   No.  Atomic          a             b             c           Radius
        Label          (eV)          (eV)          (eV)        (eV/Angs)
--------------------------------------------------------------------------------
      1 Al    c       0.000000      0.000000      0.000000      0.000000
      2 Al    c      -0.000076      0.000037      0.000038      0.000000
      3 Al    c      -0.000041      0.000047      0.000012      0.000000
      4 Al    c      -0.000028     -0.000110     -0.000019      0.000000
      5 Al    c      -0.000106     -0.000044     -0.000051      0.000000
      6 Al    c      -0.000115      0.000042     -0.000124      0.000000
      7 Al    c       0.000009     -0.000035     -0.000012      0.000000
      8 Al    c       0.000000      0.000012      0.000000      0.000000
      9 Mg    c       0.000084     -0.000039      0.000036      0.000000
     10 Mg    c      -0.000099      0.000107      0.000011      0.000000
     11 Mg    c       0.000002      0.000027      0.000058      0.000000
     12 Mg    c      -0.000004     -0.000014      0.000004      0.000000
     13 O     c       0.000003     -0.000009     -0.000048      0.000000
     14 O     c       0.000300      0.000394     -0.000077      0.000000
     15 O     c       0.000028      0.000025     -0.000011      0.000000
     16 O     c      -0.000015      0.000082     -0.000015      0.000000
     17 O     c       0.000005      0.000014     -0.000024      0.000000
     18 O     c       0.000009     -0.000011      0.000046      0.000000
     19 O     c       0.000030     -0.000047      0.000046      0.000000
     20 O     c      -0.000057     -0.000058      0.000036      0.000000
     21 O     c       0.000064      0.000051     -0.000069      0.000000
     22 O     c      -0.000017     -0.000133      0.000083      0.000000
     23 O     c       0.000014     -0.000027     -0.000018      0.000000
     24 O     c      -0.000009     -0.000037     -0.000029      0.000000
     25 O     c       0.000006      0.000062      0.000022      0.000000
     26 O     c      -0.000001      0.000017      0.000024      0.000000
     27 O     c      -0.000028     -0.000009      0.000003      0.000000
     28 O     c       0.000033     -0.000078      0.000017      0.000000
--------------------------------------------------------------------------------
  Maximum abs         0.000300      0.000394      0.000124      0.000000
--------------------------------------------------------------------------------


  Time to end of optimisation =      19.6346 seconds


  Peak dynamic memory used =       2.03 MB 


  Timing analysis for GULP :

--------------------------------------------------------------------------------
  Task / Subroutine                                          Time (Seconds)
--------------------------------------------------------------------------------
  Calculation of reciprocal space energy and derivatives          0.4350
  Calculation of real space energy and derivatives               19.0950
  Calculation and manipulation of Hessian matrix                  0.0566
  Global summation overhead                                       0.0010
--------------------------------------------------------------------------------
  Total CPU time                                                 19.6346
--------------------------------------------------------------------------------


  Job Finished at 16:02.21 11th June       2024                               

