********************************************************************************
*                       GENERAL UTILITY LATTICE PROGRAM                        *
*                                 Julian Gale                                  *
*                       Curtin Institute for Computation                       *
*                    School of Molecular and Life Sciences                     *
*                    Curtin University, Western Australia                      *
********************************************************************************
* Version = 6.0.0 * Last modified =  12th July 2021                            *
********************************************************************************
*  optimise     - perform optimisation run                                     *
*  conp         - constant pressure calculation                                *
*  nosymmetry   - turn off symmetry after initial structure generation         *
*  conjugate    - use conjugate gradients minimiser                            *
********************************************************************************

  Job Started  at 15:57.50 11th June       2024                               

  Number of CPUs =     1


  Total number of configurations input =      1

********************************************************************************
*  Input for Configuration =   1                                               *
********************************************************************************

  Formula = Al8Mg4O16                                                   

  Number of irreducible atoms/shells =      28


  Total number atoms/shells =      28

  Dimensionality = 3               :  Bulk   



  Cartesian lattice vectors (Angstroms) :

        7.176884    0.016859   -0.652946
        0.012366    4.871116   -0.003093
       -0.209496   -0.000119    5.973894

  Cell parameters (Angstroms/Degrees):

  a =       7.2065    alpha =  90.0426
  b =       4.8711    beta  =  97.2068
  c =       5.9776    gamma =  89.7178

  Initial cell volume =         208.176407 Angs**3

  Temperature of configuration =   0.00     K 

  Pressure of configuration =       100.000 GPa 

  Fractional coordinates of asymmetric unit :

--------------------------------------------------------------------------------
   No.  Atomic       x           y          z         Charge      Occupancy
        Label      (Frac)      (Frac)     (Frac)        (e)         (Frac)  
--------------------------------------------------------------------------------
      1 Al    c    0.857318    0.183212    0.109554     3.00000    1.000000    
      2 Al    c    0.558022 *  0.182682 *  0.781765 *   3.00000    1.000000    
      3 Al    c    0.378547 *  0.192163 *  0.112008 *   3.00000    1.000000    
      4 Al    c    0.079250 *  0.191632 *  0.784218 *   3.00000    1.000000    
      5 Al    c    0.447389 *  0.656026 *  0.764678 *   3.00000    1.000000    
      6 Al    c    0.600345 *  0.508317 *  0.041810 *   3.00000    1.000000    
      7 Al    c    0.926294 *  0.769086 *  0.282771 *   3.00000    1.000000    
      8 Al    c    0.447389 *  0.656025 *  0.282766 *   3.00000    1.000000    
      9 Mg    c    0.714967 *  0.190013 *  0.458480 *   2.00000    1.000000    
     10 Mg    c    0.221619 *  0.184828 *  0.435307 *   2.00000    1.000000    
     11 Mg    c    0.661580 *  0.849089 *  0.041811 *   2.00000    1.000000    
     12 Mg    c    0.178442 *  0.542008 *  0.041812 *   2.00000    1.000000    
     13 O     c    0.853427 *  0.000475 *  0.310750 *  -2.00000    1.000000    
     14 O     c    0.378407 *  0.376897 *  0.310916 *  -2.00000    1.000000    
     15 O     c    0.235070 *  0.476380 *  0.914359 *  -2.00000    1.000000    
     16 O     c    0.083137 *  0.374365 *  0.583019 *  -2.00000    1.000000    
     17 O     c    0.595739 *  0.339244 *  0.072118 *  -2.00000    1.000000    
     18 O     c    0.120757 *  0.077133 *  0.082484 *  -2.00000    1.000000    
     19 O     c    0.815810 *  0.297708 *  0.811284 *  -2.00000    1.000000    
     20 O     c    0.340829 *  0.035603 *  0.821651 *  -2.00000    1.000000    
     21 O     c    0.410928 *  0.901668 *  0.523719 *  -2.00000    1.000000    
     22 O     c    0.661579 *  0.849088 *  0.523722 *  -2.00000    1.000000    
     23 O     c    0.926295 *  0.769086 *  0.764682 *  -2.00000    1.000000    
     24 O     c    0.178441 *  0.542007 *  0.523725 *  -2.00000    1.000000    
     25 O     c    0.089081 *  0.878180 *  0.523727 *  -2.00000    1.000000    
     26 O     c    0.089080 *  0.878180 *  0.041814 *  -2.00000    1.000000    
     27 O     c    0.600346 *  0.508315 *  0.523722 *  -2.00000    1.000000    
     28 O     c    0.410928 *  0.901668 *  0.041807 *  -2.00000    1.000000    
--------------------------------------------------------------------------------



********************************************************************************
*  General input information                                                   *
********************************************************************************

  Species output for all configurations : 

--------------------------------------------------------------------------------
  Species    Type    Atomic    Atomic    Charge       Radii (Angs)     Library
                     Number     Mass       (e)     Cova   Ionic  VDW   Symbol
--------------------------------------------------------------------------------
    Mg       Core       12      24.31   2.000000   1.100  0.000  1.640          
    Al       Core       13      26.98   3.000000   1.350  0.000  2.050          
    O        Core        8      16.00  -2.000000   0.730  0.000  1.360          
--------------------------------------------------------------------------------


  Lattice summation method               =    Ewald          (3-D)
                                         =    Parry          (2-D)
                                         =    Saunders et al (1-D)
  Accuracy factor for lattice sums       =   12.000


  Analytic derivatives to be used

  Time limit = Infinity

  Maximum range for interatomic potentials =    100000.000000 Angstroms

  General interatomic potentials :

--------------------------------------------------------------------------------
Atom  Types   Potential      Parameter       Value         Units   Cutoffs(Ang)
  1     2                                                            Min /  Max 
--------------------------------------------------------------------------------
O    c Mg   c Lennard       Lennard-Jones A  1.5000000    eV*Ang^m  0.000  6.000
                            Lennard-Jones B  0.0000000    eV*Ang^n  
                            Exponent m        12          None
                            Exponent n         6          None
--------------------------------------------------------------------------------
O    c Al   c Lennard       Lennard-Jones A  1.5000000    eV*Ang^m  0.000  6.000
                            Lennard-Jones B  0.0000000    eV*Ang^n  
                            Exponent m        12          None
                            Exponent n         6          None
--------------------------------------------------------------------------------
O    c O    c Lennard       Lennard-Jones A  1.5000000    eV*Ang^m  0.000  6.000
                            Lennard-Jones B  0.0000000    eV*Ang^n  
                            Exponent m        12          None
                            Exponent n         6          None
--------------------------------------------------------------------------------
Mg   c Mg   c Lennard       Lennard-Jones A  1.5000000    eV*Ang^m  0.000  6.000
                            Lennard-Jones B  0.0000000    eV*Ang^n  
                            Exponent m        12          None
                            Exponent n         6          None
--------------------------------------------------------------------------------
Mg   c Al   c Lennard       Lennard-Jones A  1.5000000    eV*Ang^m  0.000  6.000
                            Lennard-Jones B  0.0000000    eV*Ang^n  
                            Exponent m        12          None
                            Exponent n         6          None
--------------------------------------------------------------------------------
Al   c Al   c Lennard       Lennard-Jones A  1.5000000    eV*Ang^m  0.000  6.000
                            Lennard-Jones B  0.0000000    eV*Ang^n  
                            Exponent m        12          None
                            Exponent n         6          None
--------------------------------------------------------------------------------
O    c Mg   c Buckingham    Buckingham A     1428.5000    eV        0.000  7.000
                            Buckingham rho  0.29450000    Ang       
                            Buckingham C     0.0000000    eV*Ang^6  
--------------------------------------------------------------------------------
O    c Al   c Buckingham    Buckingham A     1114.9000    eV        0.000  7.000
                            Buckingham rho  0.31180000    Ang       
                            Buckingham C     0.0000000    eV*Ang^6  
--------------------------------------------------------------------------------
O    c O    c Buckingham    Buckingham A     2023.8000    eV        0.000  7.000
                            Buckingham rho  0.26740000    Ang       
                            Buckingham C     0.0000000    eV*Ang^6  
--------------------------------------------------------------------------------

********************************************************************************
*  Output for configuration   1                                                *
********************************************************************************


  Components of enthalpy : 

--------------------------------------------------------------------------------
  Interatomic potentials     =         427.81598103 eV    
  Monopole - monopole (real) =        -327.50092707 eV    
  Monopole - monopole (recip)=        -432.98401244 eV    
  Monopole - monopole (total)=        -760.48493950 eV    
  Pressure*volume            =         129.93249045 eV    
--------------------------------------------------------------------------------
  Total lattice enthalpy     =        -202.73646803 eV    
--------------------------------------------------------------------------------
  Total lattice enthalpy     =          -19560.9701 kJ/(mole unit cells)
--------------------------------------------------------------------------------


  Number of variables =       87

  Maximum number of calculations  =           850
  Maximum Hessian update interval =            10
  Maximum step size               =   1.000000000
  Maximum parameter tolerance     =   0.000010000
  Maximum function  tolerance     =   0.000010000
  Maximum gradient  tolerance     =   0.001000000
  Maximum gradient  component     =   0.010000000

  Cell parameters to be optimised using strains

  Conjugate gradient optimiser to be used

  Lower half triangular hessian to be used

  Minimiser to switch to RFO
  When gradient norm is less than     0.010000

  Start of bulk optimisation :

  Cycle:      0 Energy:      -202.736468  Gnorm:     40.087350  CPU:    0.038
  Cycle:      1 Energy:      -445.220157  Gnorm:      9.540614  CPU:    0.142
  Cycle:      2 Energy:      -534.786491  Gnorm:      4.519852  CPU:    0.191
  Cycle:      3 Energy:      -560.434882  Gnorm:      3.642163  CPU:    0.252
  Cycle:      4 Energy:      -580.184230  Gnorm:      2.504962  CPU:    0.323
  Cycle:      5 Energy:      -588.537982  Gnorm:      2.053523  CPU:    0.384
  Cycle:      6 Energy:      -595.994904  Gnorm:      1.612970  CPU:    0.444
  Cycle:      7 Energy:      -601.016430  Gnorm:      1.489158  CPU:    0.505
  Cycle:      8 Energy:      -605.120155  Gnorm:      1.399540  CPU:    0.565
  Cycle:      9 Energy:      -608.760055  Gnorm:      1.287084  CPU:    0.626
  Cycle:     10 Energy:      -610.436006  Gnorm:      0.973536  CPU:    0.675
  Cycle:     11 Energy:      -612.762803  Gnorm:      1.044102  CPU:    0.736
  Cycle:     12 Energy:      -615.558511  Gnorm:      1.177302  CPU:    0.813
  Cycle:     13 Energy:      -618.980079  Gnorm:      1.594763  CPU:    0.885
  Cycle:     14 Energy:      -622.809091  Gnorm:      1.281038  CPU:    0.946
  Cycle:     15 Energy:      -626.758354  Gnorm:      0.964846  CPU:    1.035
  Cycle:     16 Energy:      -628.600821  Gnorm:      0.952834  CPU:    1.107
  Cycle:     17 Energy:      -629.623253  Gnorm:      0.730415  CPU:    1.179
  Cycle:     18 Energy:      -630.964829  Gnorm:      0.698077  CPU:    1.267
  Cycle:     19 Energy:      -632.050459  Gnorm:      0.750838  CPU:    1.340
  Cycle:     20 Energy:      -632.514401  Gnorm:      0.569767  CPU:    1.412
  Cycle:     21 Energy:      -633.090862  Gnorm:      0.442008  CPU:    1.501
  Cycle:     22 Energy:      -633.466731  Gnorm:      0.342230  CPU:    1.590
  Cycle:     23 Energy:      -633.785364  Gnorm:      0.417112  CPU:    1.680
  Cycle:     24 Energy:      -634.080857  Gnorm:      0.474225  CPU:    1.753
  Cycle:     25 Energy:      -634.488472  Gnorm:      0.447060  CPU:    1.814
  Cycle:     26 Energy:      -635.042767  Gnorm:      0.622451  CPU:    1.876
  Cycle:     27 Energy:      -635.583296  Gnorm:      0.647882  CPU:    1.928
  Cycle:     28 Energy:      -636.404458  Gnorm:      0.706399  CPU:    1.990
  Cycle:     29 Energy:      -637.048878  Gnorm:      0.634989  CPU:    2.042
  Cycle:     30 Energy:      -637.759350  Gnorm:      0.765878  CPU:    2.105
  Cycle:     31 Energy:      -638.463314  Gnorm:      0.589029  CPU:    2.157
  Cycle:     32 Energy:      -639.266622  Gnorm:      0.646807  CPU:    2.220
  Cycle:     33 Energy:      -639.818060  Gnorm:      0.559110  CPU:    2.271
  Cycle:     34 Energy:      -640.481432  Gnorm:      0.496296  CPU:    2.334
  Cycle:     35 Energy:      -641.280508  Gnorm:      0.652919  CPU:    2.398
  Cycle:     36 Energy:      -641.847259  Gnorm:      0.623700  CPU:    2.449
  Cycle:     37 Energy:      -642.332959  Gnorm:      0.487272  CPU:    2.501
  Cycle:     38 Energy:      -642.841754  Gnorm:      0.486162  CPU:    2.563
  Cycle:     39 Energy:      -643.163980  Gnorm:      0.464066  CPU:    2.615
  Cycle:     40 Energy:      -643.343224  Gnorm:      0.392767  CPU:    2.666
  Cycle:     41 Energy:      -643.674493  Gnorm:      0.346652  CPU:    2.729
  Cycle:     42 Energy:      -643.896515  Gnorm:      0.351976  CPU:    2.780
  Cycle:     43 Energy:      -644.186035  Gnorm:      0.428879  CPU:    2.843
  Cycle:     44 Energy:      -644.430241  Gnorm:      0.378384  CPU:    2.895
  Cycle:     45 Energy:      -644.798530  Gnorm:      0.372263  CPU:    2.957
  Cycle:     46 Energy:      -645.089108  Gnorm:      0.375963  CPU:    3.009
  Cycle:     47 Energy:      -645.285433  Gnorm:      0.446129  CPU:    3.060
  Cycle:     48 Energy:      -645.615461  Gnorm:      0.442890  CPU:    3.123
  Cycle:     49 Energy:      -645.892826  Gnorm:      0.498418  CPU:    3.174
  Cycle:     50 Energy:      -646.058970  Gnorm:      0.361332  CPU:    3.226
  Cycle:     51 Energy:      -646.308533  Gnorm:      0.316047  CPU:    3.289
  Cycle:     52 Energy:      -646.427427  Gnorm:      0.296305  CPU:    3.340
  Cycle:     53 Energy:      -646.555870  Gnorm:      0.269460  CPU:    3.403
  Cycle:     54 Energy:      -646.704144  Gnorm:      0.240585  CPU:    3.466
  Cycle:     55 Energy:      -646.846179  Gnorm:      0.284531  CPU:    3.529
  Cycle:     56 Energy:      -646.957866  Gnorm:      0.312489  CPU:    3.581
  Cycle:     57 Energy:      -647.057790  Gnorm:      0.224102  CPU:    3.633
  Cycle:     58 Energy:      -647.169710  Gnorm:      0.240980  CPU:    3.696
  Cycle:     59 Energy:      -647.256510  Gnorm:      0.283018  CPU:    3.747
  Cycle:     60 Energy:      -647.310360  Gnorm:      0.188134  CPU:    3.799
  Cycle:     61 Energy:      -647.377149  Gnorm:      0.188959  CPU:    3.862
  Cycle:     62 Energy:      -647.420225  Gnorm:      0.208193  CPU:    3.914
  Cycle:     63 Energy:      -647.485114  Gnorm:      0.179089  CPU:    3.977
  Cycle:     64 Energy:      -647.545193  Gnorm:      0.154962  CPU:    4.040
  Cycle:     65 Energy:      -647.598415  Gnorm:      0.145441  CPU:    4.103
  Cycle:     66 Energy:      -647.645983  Gnorm:      0.177212  CPU:    4.165
  Cycle:     67 Energy:      -647.678183  Gnorm:      0.185142  CPU:    4.217
  Cycle:     68 Energy:      -647.756728  Gnorm:      0.210599  CPU:    4.279
  Cycle:     69 Energy:      -647.835172  Gnorm:      0.289318  CPU:    4.330
  Cycle:     70 Energy:      -647.888515  Gnorm:      0.190998  CPU:    4.381
  Cycle:     71 Energy:      -647.944701  Gnorm:      0.163489  CPU:    4.443
  Cycle:     72 Energy:      -647.971297  Gnorm:      0.153647  CPU:    4.494
  Cycle:     73 Energy:      -648.008060  Gnorm:      0.132050  CPU:    4.556
  Cycle:     74 Energy:      -648.053897  Gnorm:      0.146449  CPU:    4.619
  Cycle:     75 Energy:      -648.112484  Gnorm:      0.175427  CPU:    4.681
  Cycle:     76 Energy:      -648.193410  Gnorm:      0.196315  CPU:    4.743
  Cycle:     77 Energy:      -648.262837  Gnorm:      0.266831  CPU:    4.794
  Cycle:     78 Energy:      -648.358148  Gnorm:      0.245727  CPU:    4.856
  Cycle:     79 Energy:      -648.558457  Gnorm:      0.510040  CPU:    4.919
  Cycle:     80 Energy:      -648.680547  Gnorm:      0.245216  CPU:    4.969
  Cycle:     81 Energy:      -648.781785  Gnorm:      0.276696  CPU:    5.032
  Cycle:     82 Energy:      -648.956355  Gnorm:      0.260922  CPU:    5.094
  Cycle:     83 Energy:      -649.041818  Gnorm:      0.250586  CPU:    5.145
  Cycle:     84 Energy:      -649.117228  Gnorm:      0.183583  CPU:    5.207
  Cycle:     85 Energy:      -649.189755  Gnorm:      0.190147  CPU:    5.269
  Cycle:     86 Energy:      -649.228351  Gnorm:      0.203265  CPU:    5.320
  Cycle:     87 Energy:      -649.282465  Gnorm:      0.166959  CPU:    5.382
  Cycle:     88 Energy:      -649.360942  Gnorm:      0.199259  CPU:    5.444
  Cycle:     89 Energy:      -649.444111  Gnorm:      0.243738  CPU:    5.495
  Cycle:     90 Energy:      -649.486155  Gnorm:      0.181471  CPU:    5.545
  Cycle:     91 Energy:      -649.538652  Gnorm:      0.169086  CPU:    5.607
  Cycle:     92 Energy:      -649.571139  Gnorm:      0.177550  CPU:    5.658
  Cycle:     93 Energy:      -649.616219  Gnorm:      0.149609  CPU:    5.720
  Cycle:     94 Energy:      -649.668150  Gnorm:      0.162734  CPU:    5.782
  Cycle:     95 Energy:      -649.727875  Gnorm:      0.159354  CPU:    5.844
  Cycle:     96 Energy:      -649.803070  Gnorm:      0.257702  CPU:    5.905
  Cycle:     97 Energy:      -649.866541  Gnorm:      0.231078  CPU:    5.956
  Cycle:     98 Energy:      -649.934715  Gnorm:      0.212186  CPU:    6.007
  Cycle:     99 Energy:      -650.002044  Gnorm:      0.249951  CPU:    6.069
  Cycle:    100 Energy:      -650.048502  Gnorm:      0.178310  CPU:    6.119
  Cycle:    101 Energy:      -650.078296  Gnorm:      0.140188  CPU:    6.181
  Cycle:    102 Energy:      -650.129524  Gnorm:      0.178861  CPU:    6.243
  Cycle:    103 Energy:      -650.187037  Gnorm:      0.152234  CPU:    6.294
  Cycle:    104 Energy:      -650.210585  Gnorm:      0.130191  CPU:    6.345
  Cycle:    105 Energy:      -650.238916  Gnorm:      0.112203  CPU:    6.407
  Cycle:    106 Energy:      -650.261762  Gnorm:      0.147976  CPU:    6.468
  Cycle:    107 Energy:      -650.282737  Gnorm:      0.128359  CPU:    6.519
  Cycle:    108 Energy:      -650.325085  Gnorm:      0.153885  CPU:    6.570
  Cycle:    109 Energy:      -650.372214  Gnorm:      0.211748  CPU:    6.631
  Cycle:    110 Energy:      -650.397868  Gnorm:      0.139782  CPU:    6.682
  Cycle:    111 Energy:      -650.426382  Gnorm:      0.098845  CPU:    6.744
  Cycle:    112 Energy:      -650.447827  Gnorm:      0.091593  CPU:    6.805
  Cycle:    113 Energy:      -650.460302  Gnorm:      0.112948  CPU:    6.856
  Cycle:    114 Energy:      -650.482977  Gnorm:      0.091327  CPU:    6.918
  Cycle:    115 Energy:      -650.502368  Gnorm:      0.104059  CPU:    6.980
  Cycle:    116 Energy:      -650.534477  Gnorm:      0.135718  CPU:    7.042
  Cycle:    117 Energy:      -650.558579  Gnorm:      0.143732  CPU:    7.092
  Cycle:    118 Energy:      -650.577841  Gnorm:      0.103151  CPU:    7.143
  Cycle:    119 Energy:      -650.600044  Gnorm:      0.165871  CPU:    7.205
  Cycle:    120 Energy:      -650.616439  Gnorm:      0.097622  CPU:    7.255
  Cycle:    121 Energy:      -650.629009  Gnorm:      0.094404  CPU:    7.317
  Cycle:    122 Energy:      -650.642478  Gnorm:      0.110421  CPU:    7.379
  Cycle:    123 Energy:      -650.657603  Gnorm:      0.087061  CPU:    7.430
  Cycle:    124 Energy:      -650.670261  Gnorm:      0.060047  CPU:    7.492
  Cycle:    125 Energy:      -650.681570  Gnorm:      0.068810  CPU:    7.554
  Cycle:    126 Energy:      -650.686483  Gnorm:      0.075510  CPU:    7.604
  Cycle:    127 Energy:      -650.694577  Gnorm:      0.057372  CPU:    7.666
  Cycle:    128 Energy:      -650.703826  Gnorm:      0.071755  CPU:    7.728
  Cycle:    129 Energy:      -650.716193  Gnorm:      0.114119  CPU:    7.790
  Cycle:    130 Energy:      -650.724639  Gnorm:      0.068136  CPU:    7.841
  Cycle:    131 Energy:      -650.732024  Gnorm:      0.060250  CPU:    7.892
  Cycle:    132 Energy:      -650.736689  Gnorm:      0.063517  CPU:    7.943
  Cycle:    133 Energy:      -650.740719  Gnorm:      0.053266  CPU:    7.993
  Cycle:    134 Energy:      -650.746930  Gnorm:      0.055793  CPU:    8.055
  Cycle:    135 Energy:      -650.752746  Gnorm:      0.045367  CPU:    8.106
  Cycle:    136 Energy:      -650.760696  Gnorm:      0.056980  CPU:    8.170
  Cycle:    137 Energy:      -650.768202  Gnorm:      0.075464  CPU:    8.221
  Cycle:    138 Energy:      -650.772244  Gnorm:      0.051641  CPU:    8.272
  Cycle:    139 Energy:      -650.779352  Gnorm:      0.081081  CPU:    8.334
  Cycle:    140 Energy:      -650.783616  Gnorm:      0.051656  CPU:    8.385
  Cycle:    141 Energy:      -650.786326  Gnorm:      0.046982  CPU:    8.435
  Cycle:    142 Energy:      -650.792282  Gnorm:      0.048815  CPU:    8.486
  Cycle:    143 Energy:      -650.795571  Gnorm:      0.051660  CPU:    8.537
  Cycle:    144 Energy:      -650.798806  Gnorm:      0.033879  CPU:    8.588
  Cycle:    145 Energy:      -650.802096  Gnorm:      0.040018  CPU:    8.650
  Cycle:    146 Energy:      -650.804813  Gnorm:      0.039878  CPU:    8.701
  Cycle:    147 Energy:      -650.806555  Gnorm:      0.043966  CPU:    8.751
  Cycle:    148 Energy:      -650.809537  Gnorm:      0.042634  CPU:    8.802
  Cycle:    149 Energy:      -650.814940  Gnorm:      0.054400  CPU:    8.864
  Cycle:    150 Energy:      -650.818831  Gnorm:      0.043247  CPU:    8.915
  Cycle:    151 Energy:      -650.820937  Gnorm:      0.037610  CPU:    8.966
  Cycle:    152 Energy:      -650.822940  Gnorm:      0.030195  CPU:    9.016
  Cycle:    153 Energy:      -650.824434  Gnorm:      0.038955  CPU:    9.067
  Cycle:    154 Energy:      -650.826073  Gnorm:      0.034519  CPU:    9.118
  Cycle:    155 Energy:      -650.827781  Gnorm:      0.029809  CPU:    9.169
  Cycle:    156 Energy:      -650.829923  Gnorm:      0.041128  CPU:    9.219
  Cycle:    157 Energy:      -650.831706  Gnorm:      0.040380  CPU:    9.270
  Cycle:    158 Energy:      -650.834416  Gnorm:      0.039324  CPU:    9.321
  Cycle:    159 Energy:      -650.835844  Gnorm:      0.032391  CPU:    9.372
  Cycle:    160 Energy:      -650.836941  Gnorm:      0.034129  CPU:    9.423
  Cycle:    161 Energy:      -650.838208  Gnorm:      0.028825  CPU:    9.474
  Cycle:    162 Energy:      -650.840357  Gnorm:      0.035901  CPU:    9.524
  Cycle:    163 Energy:      -650.842079  Gnorm:      0.026814  CPU:    9.575
  Cycle:    164 Energy:      -650.842915  Gnorm:      0.027187  CPU:    9.626
  Cycle:    165 Energy:      -650.844916  Gnorm:      0.026168  CPU:    9.677
  Cycle:    166 Energy:      -650.846011  Gnorm:      0.032002  CPU:    9.727
  Cycle:    167 Energy:      -650.847144  Gnorm:      0.032752  CPU:    9.779
  Cycle:    168 Energy:      -650.849091  Gnorm:      0.032460  CPU:    9.830
  Cycle:    169 Energy:      -650.854077  Gnorm:      0.064000  CPU:    9.892
  Cycle:    170 Energy:      -650.856837  Gnorm:      0.046307  CPU:    9.943
  Cycle:    171 Energy:      -650.858826  Gnorm:      0.025929  CPU:    9.994
  Cycle:    172 Energy:      -650.859993  Gnorm:      0.021064  CPU:   10.045
  Cycle:    173 Energy:      -650.860968  Gnorm:      0.023003  CPU:   10.096
  Cycle:    174 Energy:      -650.862408  Gnorm:      0.020653  CPU:   10.146
  Cycle:    175 Energy:      -650.863416  Gnorm:      0.024988  CPU:   10.198
  Cycle:    176 Energy:      -650.864014  Gnorm:      0.026404  CPU:   10.248
  Cycle:    177 Energy:      -650.865844  Gnorm:      0.028167  CPU:   10.311
  Cycle:    178 Energy:      -650.866460  Gnorm:      0.020493  CPU:   10.362
  Cycle:    179 Energy:      -650.867670  Gnorm:      0.028541  CPU:   10.424
  Cycle:    180 Energy:      -650.868693  Gnorm:      0.023455  CPU:   10.474
  Cycle:    181 Energy:      -650.869198  Gnorm:      0.024269  CPU:   10.525
  Cycle:    182 Energy:      -650.870667  Gnorm:      0.023551  CPU:   10.576
  Cycle:    183 Energy:      -650.871502  Gnorm:      0.022434  CPU:   10.627
  Cycle:    184 Energy:      -650.872113  Gnorm:      0.021177  CPU:   10.678
  Cycle:    185 Energy:      -650.873064  Gnorm:      0.021963  CPU:   10.739
  Cycle:    186 Energy:      -650.874118  Gnorm:      0.019836  CPU:   10.790
  Cycle:    187 Energy:      -650.874563  Gnorm:      0.023689  CPU:   10.841
  Cycle:    188 Energy:      -650.875440  Gnorm:      0.023587  CPU:   10.891
  Cycle:    189 Energy:      -650.876912  Gnorm:      0.033489  CPU:   10.942
  Cycle:    190 Energy:      -650.878145  Gnorm:      0.023225  CPU:   10.993
  Cycle:    191 Energy:      -650.879027  Gnorm:      0.023621  CPU:   11.043
  Cycle:    192 Energy:      -650.879433  Gnorm:      0.017742  CPU:   11.094
  Cycle:    193 Energy:      -650.880356  Gnorm:      0.020607  CPU:   11.145
  Cycle:    194 Energy:      -650.881252  Gnorm:      0.019474  CPU:   11.195
  Cycle:    195 Energy:      -650.881816  Gnorm:      0.021221  CPU:   11.246
  Cycle:    196 Energy:      -650.882504  Gnorm:      0.022264  CPU:   11.308
  Cycle:    197 Energy:      -650.883703  Gnorm:      0.018403  CPU:   11.358
  Cycle:    198 Energy:      -650.884440  Gnorm:      0.021164  CPU:   11.409
  Cycle:    199 Energy:      -650.885037  Gnorm:      0.032728  CPU:   11.460
  Cycle:    200 Energy:      -650.885604  Gnorm:      0.020382  CPU:   11.510
  Cycle:    201 Energy:      -650.886288  Gnorm:      0.018262  CPU:   11.561
  Cycle:    202 Energy:      -650.887213  Gnorm:      0.024662  CPU:   11.611
  Cycle:    203 Energy:      -650.887849  Gnorm:      0.019391  CPU:   11.662
  Cycle:    204 Energy:      -650.888430  Gnorm:      0.017519  CPU:   11.712
  Cycle:    205 Energy:      -650.889128  Gnorm:      0.021314  CPU:   11.763
  Cycle:    206 Energy:      -650.889863  Gnorm:      0.020101  CPU:   11.814
  Cycle:    207 Energy:      -650.890408  Gnorm:      0.018312  CPU:   11.865
  Cycle:    208 Energy:      -650.890926  Gnorm:      0.023981  CPU:   11.915
  Cycle:    209 Energy:      -650.891736  Gnorm:      0.025421  CPU:   11.966
  Cycle:    210 Energy:      -650.892231  Gnorm:      0.021970  CPU:   12.016
  Cycle:    211 Energy:      -650.892923  Gnorm:      0.018275  CPU:   12.067
  Cycle:    212 Energy:      -650.893278  Gnorm:      0.017127  CPU:   12.117
  Cycle:    213 Energy:      -650.893790  Gnorm:      0.020378  CPU:   12.168
  Cycle:    214 Energy:      -650.894829  Gnorm:      0.017107  CPU:   12.218
  Cycle:    215 Energy:      -650.895389  Gnorm:      0.016865  CPU:   12.269
  Cycle:    216 Energy:      -650.896467  Gnorm:      0.022595  CPU:   12.320
  Cycle:    217 Energy:      -650.897130  Gnorm:      0.021928  CPU:   12.370
  Cycle:    218 Energy:      -650.897576  Gnorm:      0.021658  CPU:   12.421
  Cycle:    219 Energy:      -650.899019  Gnorm:      0.030949  CPU:   12.483
  Cycle:    220 Energy:      -650.900302  Gnorm:      0.020564  CPU:   12.533
  Cycle:    221 Energy:      -650.900666  Gnorm:      0.018961  CPU:   12.584
  Cycle:    222 Energy:      -650.901229  Gnorm:      0.019975  CPU:   12.635
  Cycle:    223 Energy:      -650.901966  Gnorm:      0.023370  CPU:   12.685
  Cycle:    224 Energy:      -650.902536  Gnorm:      0.017169  CPU:   12.736
  Cycle:    225 Energy:      -650.903202  Gnorm:      0.018071  CPU:   12.787
  Cycle:    226 Energy:      -650.903986  Gnorm:      0.017583  CPU:   12.838
  Cycle:    227 Energy:      -650.904744  Gnorm:      0.019778  CPU:   12.889
  Cycle:    228 Energy:      -650.905181  Gnorm:      0.021037  CPU:   12.939
  Cycle:    229 Energy:      -650.905777  Gnorm:      0.024809  CPU:   12.990
  Cycle:    230 Energy:      -650.906287  Gnorm:      0.019203  CPU:   13.041
  Cycle:    231 Energy:      -650.906694  Gnorm:      0.020447  CPU:   13.092
  Cycle:    232 Energy:      -650.907518  Gnorm:      0.017917  CPU:   13.142
  Cycle:    233 Energy:      -650.908259  Gnorm:      0.017741  CPU:   13.205
  Cycle:    234 Energy:      -650.908847  Gnorm:      0.019554  CPU:   13.255
  Cycle:    235 Energy:      -650.909391  Gnorm:      0.021587  CPU:   13.306
  Cycle:    236 Energy:      -650.910240  Gnorm:      0.018491  CPU:   13.357
  Cycle:    237 Energy:      -650.910805  Gnorm:      0.020949  CPU:   13.408
  Cycle:    238 Energy:      -650.911230  Gnorm:      0.021128  CPU:   13.459
  Cycle:    239 Energy:      -650.912357  Gnorm:      0.025923  CPU:   13.509
  Cycle:    240 Energy:      -650.913389  Gnorm:      0.020901  CPU:   13.560
  Cycle:    241 Energy:      -650.913839  Gnorm:      0.021958  CPU:   13.611
  Cycle:    242 Energy:      -650.914439  Gnorm:      0.018287  CPU:   13.662
  Cycle:    243 Energy:      -650.915198  Gnorm:      0.021183  CPU:   13.712
  Cycle:    244 Energy:      -650.915752  Gnorm:      0.020477  CPU:   13.763
  Cycle:    245 Energy:      -650.916444  Gnorm:      0.018152  CPU:   13.814
  Cycle:    246 Energy:      -650.917128  Gnorm:      0.017293  CPU:   13.865
  Cycle:    247 Energy:      -650.918062  Gnorm:      0.021093  CPU:   13.916
  Cycle:    248 Energy:      -650.918558  Gnorm:      0.020236  CPU:   13.967
  Cycle:    249 Energy:      -650.919043  Gnorm:      0.024891  CPU:   14.017
  Cycle:    250 Energy:      -650.919480  Gnorm:      0.019272  CPU:   14.068
  Cycle:    251 Energy:      -650.919972  Gnorm:      0.021119  CPU:   14.119
  Cycle:    252 Energy:      -650.920934  Gnorm:      0.017315  CPU:   14.170
  Cycle:    253 Energy:      -650.921620  Gnorm:      0.018172  CPU:   14.221
  Cycle:    254 Energy:      -650.922319  Gnorm:      0.020888  CPU:   14.272
  Cycle:    255 Energy:      -650.922904  Gnorm:      0.021586  CPU:   14.323
  Cycle:    256 Energy:      -650.923673  Gnorm:      0.017919  CPU:   14.374
  Cycle:    257 Energy:      -650.924352  Gnorm:      0.020630  CPU:   14.425
  Cycle:    258 Energy:      -650.924821  Gnorm:      0.023986  CPU:   14.475
  Cycle:    259 Energy:      -650.925840  Gnorm:      0.026773  CPU:   14.526
  Cycle:    260 Energy:      -650.926839  Gnorm:      0.023711  CPU:   14.577
  Cycle:    261 Energy:      -650.927304  Gnorm:      0.020649  CPU:   14.628
  Cycle:    262 Energy:      -650.927976  Gnorm:      0.017813  CPU:   14.679
  Cycle:    263 Energy:      -650.928716  Gnorm:      0.021828  CPU:   14.730
  Cycle:    264 Energy:      -650.929293  Gnorm:      0.020387  CPU:   14.780
  Cycle:    265 Energy:      -650.929995  Gnorm:      0.018159  CPU:   14.843
  Cycle:    266 Energy:      -650.930651  Gnorm:      0.018243  CPU:   14.894
  Cycle:    267 Energy:      -650.931274  Gnorm:      0.025701  CPU:   14.944
  Cycle:    268 Energy:      -650.931961  Gnorm:      0.018994  CPU:   14.995
  Cycle:    269 Energy:      -650.932372  Gnorm:      0.020121  CPU:   15.046
  Cycle:    270 Energy:      -650.932645  Gnorm:      0.016763  CPU:   15.097
  Cycle:    271 Energy:      -650.933379  Gnorm:      0.024024  CPU:   15.148
  Cycle:    272 Energy:      -650.934036  Gnorm:      0.020717  CPU:   15.198
  Cycle:    273 Energy:      -650.934515  Gnorm:      0.016990  CPU:   15.249
  Cycle:    274 Energy:      -650.935123  Gnorm:      0.019082  CPU:   15.299
  Cycle:    275 Energy:      -650.935671  Gnorm:      0.024378  CPU:   15.350
  Cycle:    276 Energy:      -650.936349  Gnorm:      0.019806  CPU:   15.401
  Cycle:    277 Energy:      -650.936902  Gnorm:      0.016604  CPU:   15.451
  Cycle:    278 Energy:      -650.937467  Gnorm:      0.023485  CPU:   15.502
  Cycle:    279 Energy:      -650.938276  Gnorm:      0.027327  CPU:   15.552
  Cycle:    280 Energy:      -650.938828  Gnorm:      0.022816  CPU:   15.603
  Cycle:    281 Energy:      -650.939399  Gnorm:      0.015656  CPU:   15.654
  Cycle:    282 Energy:      -650.939842  Gnorm:      0.013944  CPU:   15.705
  Cycle:    283 Energy:      -650.940642  Gnorm:      0.024329  CPU:   15.755
  Cycle:    284 Energy:      -650.941325  Gnorm:      0.020284  CPU:   15.806
  Cycle:    285 Energy:      -650.941758  Gnorm:      0.014906  CPU:   15.857
  Cycle:    286 Energy:      -650.942122  Gnorm:      0.017641  CPU:   15.919
  Cycle:    287 Energy:      -650.942588  Gnorm:      0.021355  CPU:   15.970
  Cycle:    288 Energy:      -650.943129  Gnorm:      0.020113  CPU:   16.021
  Cycle:    289 Energy:      -650.943856  Gnorm:      0.019148  CPU:   16.071
  Cycle:    290 Energy:      -650.944369  Gnorm:      0.019184  CPU:   16.122
  Cycle:    291 Energy:      -650.944762  Gnorm:      0.015473  CPU:   16.173
  Cycle:    292 Energy:      -650.945162  Gnorm:      0.015798  CPU:   16.224
  Cycle:    293 Energy:      -650.945368  Gnorm:      0.012206  CPU:   16.275
  Cycle:    294 Energy:      -650.945583  Gnorm:      0.012952  CPU:   16.325
  Cycle:    295 Energy:      -650.947423  Gnorm:      0.026589  CPU:   16.399
  Cycle:    296 Energy:      -650.948644  Gnorm:      0.021387  CPU:   16.450
  Cycle:    297 Energy:      -650.949279  Gnorm:      0.017715  CPU:   16.501
  Cycle:    298 Energy:      -650.950234  Gnorm:      0.028953  CPU:   16.551
  Cycle:    299 Energy:      -650.951011  Gnorm:      0.028910  CPU:   16.603
  Cycle:    300 Energy:      -650.951622  Gnorm:      0.023467  CPU:   16.654
  Cycle:    301 Energy:      -650.952177  Gnorm:      0.013011  CPU:   16.705
  Cycle:    302 Energy:      -650.952380  Gnorm:      0.010146  CPU:   16.755
  Cycle:    303 Energy:      -650.953073  Gnorm:      0.017702  CPU:   16.818
  Cycle:    304 Energy:      -650.953787  Gnorm:      0.013989  CPU:   16.869
  Cycle:    305 Energy:      -650.953951  Gnorm:      0.011553  CPU:   16.919
  Cycle:    306 Energy:      -650.954187  Gnorm:      0.013810  CPU:   16.970
  Cycle:    307 Energy:      -650.954483  Gnorm:      0.018116  CPU:   17.021
  Cycle:    308 Energy:      -650.954898  Gnorm:      0.014818  CPU:   17.072
  Cycle:    309 Energy:      -650.955682  Gnorm:      0.022544  CPU:   17.123
  Cycle:    310 Energy:      -650.956064  Gnorm:      0.014118  CPU:   17.174
  Cycle:    311 Energy:      -650.956253  Gnorm:      0.012896  CPU:   17.225
  Cycle:    312 Energy:      -650.956533  Gnorm:      0.011404  CPU:   17.276
  Cycle:    313 Energy:      -650.956647  Gnorm:      0.008731  CPU:   17.327
  ** Hessian has required structure
  Cycle:    314 Energy:      -650.960922  Gnorm:      0.006893  CPU:   17.534
  ** Hessian has required structure
  Cycle:    315 Energy:      -650.965118  Gnorm:      0.004851  CPU:   17.626
  ** Hessian has required structure
  Cycle:    316 Energy:      -650.967571  Gnorm:      0.003599  CPU:   17.706
  ** Hessian has required structure
  Cycle:    317 Energy:      -650.967906  Gnorm:      0.001046  CPU:   17.775
  ** Hessian has required structure
  Cycle:    318 Energy:      -650.967931  Gnorm:      0.000531  CPU:   17.845
  ** Hessian has required structure


  **** Optimisation achieved ****


  Final enthalpy =    -650.96793302 eV      
  Final Gnorm    =       0.00008761

  Components of enthalpy : 

--------------------------------------------------------------------------------
  Interatomic potentials     =         216.76626044 eV    
  Monopole - monopole (real) =        -500.68411429 eV    
  Monopole - monopole (recip)=        -492.77265243 eV    
  Monopole - monopole (total)=        -993.45676672 eV    
  Pressure*volume            =         125.72257326 eV    
--------------------------------------------------------------------------------
  Total lattice enthalpy     =        -650.96793302 eV    
--------------------------------------------------------------------------------
  Total lattice enthalpy     =          -62808.4546 kJ/(mole unit cells)
--------------------------------------------------------------------------------

  Final fractional coordinates of atoms :

--------------------------------------------------------------------------------
   No.  Atomic        x           y          z          Radius
        Label       (Frac)      (Frac)     (Frac)       (Angs) 
--------------------------------------------------------------------------------
     1  Al    c     0.857318    0.183212    0.109554    0.000000
     2  Al    c     0.514638    0.208743    0.883968    0.000000
     3  Al    c     0.514378    0.216754    0.380291    0.000000
     4  Al    c     0.160440    0.202274    0.843760    0.000000
     5  Al    c     0.328729    0.724770    0.724966    0.000000
     6  Al    c     0.666352    0.691708    0.022404    0.000000
     7  Al    c     0.018663    0.690986    0.465566    0.000000
     8  Al    c     0.669019    0.688061    0.521874    0.000000
     9  Mg    c     0.844335    0.176392    0.611678    0.000000
    10  Mg    c     0.171942    0.228015    0.334976    0.000000
    11  Mg    c     0.012457    0.690901    0.964085    0.000000
    12  Mg    c     0.333488    0.719066    0.230058    0.000000
    13  O     c     0.839733    0.868626    0.432140    0.000000
    14  O     c     0.480189    0.489440    0.575415    0.000000
    15  O     c     0.481330    0.490147    0.054288    0.000000
    16  O     c     0.962176    0.402525    0.286806    0.000000
    17  O     c     0.693999    0.413447    0.338735    0.000000
    18  O     c     0.220032    0.494940    0.992778    0.000000
    19  O     c     0.975460    0.391399    0.789475    0.000000
    20  O     c     0.341930    0.025213    0.890762    0.000000
    21  O     c     0.356060    0.013243    0.427178    0.000000
    22  O     c     0.593057    0.951194    0.694344    0.000000
    23  O     c     0.825859    0.897412    0.960137    0.000000
    24  O     c     0.204537    0.514705    0.535694    0.000000
    25  O     c     0.095496    0.950764    0.656409    0.000000
    26  O     c     0.085938    0.955976    0.157233    0.000000
    27  O     c     0.708989    0.418402    0.852480    0.000000
    28  O     c     0.588472    0.953576    0.193291    0.000000
--------------------------------------------------------------------------------

  Final Cartesian lattice vectors (Angstroms) :

        8.710304   -0.048848   -0.236015
        0.028152    4.542377    0.652259
        0.029285    0.802037    5.205439


  Final cell parameters and derivatives :

--------------------------------------------------------------------------------
       a            8.713637 Angstrom     dE/de1(xx)    -0.001121 eV/strain
       b            4.589055 Angstrom     dE/de2(yy)     0.000612 eV/strain
       c            5.266946 Angstrom     dE/de3(zz)     0.000475 eV/strain
       alpha       73.067996 Degrees      dE/de4(yz)    -0.000190 eV/strain
       beta        91.264334 Degrees      dE/de5(xz)     0.002013 eV/strain
       gamma       90.187161 Degrees      dE/de6(xy)    -0.000388 eV/strain
--------------------------------------------------------------------------------

  Primitive cell volume =           201.431324 Angs**3

  Density of cell =      4.691398 g/cm**3

  Non-primitive cell volume =           201.431324 Angs**3


  Final internal derivatives :

--------------------------------------------------------------------------------
   No.  Atomic          a             b             c           Radius
        Label          (eV)          (eV)          (eV)        (eV/Angs)
--------------------------------------------------------------------------------
      1 Al    c       0.000000      0.000000      0.000000      0.000000
      2 Al    c      -0.000528      0.000176     -0.000417      0.000000
      3 Al    c      -0.000598     -0.000255     -0.000427      0.000000
      4 Al    c       0.000496      0.000196      0.000108      0.000000
      5 Al    c      -0.000293      0.001052      0.001765      0.000000
      6 Al    c       0.002651     -0.000054      0.001162      0.000000
      7 Al    c      -0.000569      0.000193      0.000910      0.000000
      8 Al    c       0.003065      0.000562      0.000124      0.000000
      9 Mg    c       0.001021     -0.000912     -0.001047      0.000000
     10 Mg    c       0.000590      0.000024     -0.000057      0.000000
     11 Mg    c       0.000027      0.000055      0.000170      0.000000
     12 Mg    c       0.000466      0.000341      0.000259      0.000000
     13 O     c      -0.001165     -0.000004     -0.001314      0.000000
     14 O     c       0.000417     -0.000452     -0.001187      0.000000
     15 O     c      -0.000047      0.000115     -0.000248      0.000000
     16 O     c      -0.001900      0.000952      0.001358      0.000000
     17 O     c       0.001075     -0.000499     -0.000221      0.000000
     18 O     c      -0.000341     -0.000285      0.000222      0.000000
     19 O     c      -0.000012      0.000376      0.000869      0.000000
     20 O     c      -0.000126     -0.000040      0.000087      0.000000
     21 O     c       0.000552     -0.000038      0.000095      0.000000
     22 O     c      -0.001205      0.000193     -0.000236      0.000000
     23 O     c      -0.001914     -0.000038     -0.000484      0.000000
     24 O     c       0.000092     -0.000775     -0.001249      0.000000
     25 O     c      -0.000065      0.000071     -0.000690      0.000000
     26 O     c      -0.000047     -0.000123      0.000289      0.000000
     27 O     c       0.000178     -0.000017      0.000771      0.000000
     28 O     c      -0.000375     -0.000201     -0.000009      0.000000
--------------------------------------------------------------------------------
  Maximum abs         0.003065      0.001052      0.001765      0.000000
--------------------------------------------------------------------------------


  Time to end of optimisation =      17.9146 seconds


  Peak dynamic memory used =       2.03 MB 


  Timing analysis for GULP :

--------------------------------------------------------------------------------
  Task / Subroutine                                          Time (Seconds)
--------------------------------------------------------------------------------
  Calculation of reciprocal space energy and derivatives          0.8202
  Calculation of real space energy and derivatives               16.9092
  Calculation and manipulation of Hessian matrix                  0.1106
  Global summation overhead                                       0.0018
--------------------------------------------------------------------------------
  Total CPU time                                                 17.9147
--------------------------------------------------------------------------------


  Job Finished at 15:58.08 11th June       2024                               

