********************************************************************************
*                       GENERAL UTILITY LATTICE PROGRAM                        *
*                                 Julian Gale                                  *
*                       Curtin Institute for Computation                       *
*                    School of Molecular and Life Sciences                     *
*                    Curtin University, Western Australia                      *
********************************************************************************
* Version = 6.0.0 * Last modified =  12th July 2021                            *
********************************************************************************
*  optimise     - perform optimisation run                                     *
*  conp         - constant pressure calculation                                *
*  nosymmetry   - turn off symmetry after initial structure generation         *
*  conjugate    - use conjugate gradients minimiser                            *
********************************************************************************

  Job Started  at 16:03.14 11th June       2024                               

  Number of CPUs =     1


  Total number of configurations input =      1

********************************************************************************
*  Input for Configuration =   1                                               *
********************************************************************************

  Formula = Al8Mg4O16                                                   

  Number of irreducible atoms/shells =      28


  Total number atoms/shells =      28

  Dimensionality = 3               :  Bulk   



  Cartesian lattice vectors (Angstroms) :

        6.177360   -1.106196   -0.333773
       -0.685779    5.967030    0.101516
       -0.609815    0.728459    5.806138

  Cell parameters (Angstroms/Degrees):

  a =       6.2845    alpha =  81.2861
  b =       6.0072    beta  = 100.1422
  c =       5.8833    gamma = 106.7356

  Initial cell volume =         208.176407 Angs**3

  Temperature of configuration =   0.00     K 

  Pressure of configuration =       100.000 GPa 

  Fractional coordinates of asymmetric unit :

--------------------------------------------------------------------------------
   No.  Atomic       x           y          z         Charge      Occupancy
        Label      (Frac)      (Frac)     (Frac)        (e)         (Frac)  
--------------------------------------------------------------------------------
      1 Al    c    0.134192    0.445154    0.183446     3.00000    1.000000    
      2 Al    c    0.639311 *  0.844001 *  0.318434 *   3.00000    1.000000    
      3 Al    c    0.561255 *  0.444311 *  0.178297 *   3.00000    1.000000    
      4 Al    c    0.214801 *  0.001072 *  0.316462 *   3.00000    1.000000    
      5 Al    c    0.820403 *  0.440535 *  0.471846 *   3.00000    1.000000    
      6 Al    c    0.225900 *  0.582207 *  0.721583 *   3.00000    1.000000    
      7 Al    c    0.310155 *  0.420411 *  0.670304 *   3.00000    1.000000    
      8 Al    c    0.105908 *  0.840768 *  0.829727 *   3.00000    1.000000    
      9 Mg    c    0.394223 *  0.426807 *  0.463334 *   2.00000    1.000000    
     10 Mg    c    0.305313 *  0.032285 *  0.043727 *   2.00000    1.000000    
     11 Mg    c    0.730985 *  0.068733 *  0.034011 *   2.00000    1.000000    
     12 Mg    c    0.013024 *  0.202532 *  0.602797 *   2.00000    1.000000    
     13 O     c    0.466857 *  0.082767 *  0.423581 *  -2.00000    1.000000    
     14 O     c    0.203032 *  0.624346 *  0.589064 *  -2.00000    1.000000    
     15 O     c    0.648511 *  0.650561 *  0.574146 *  -2.00000    1.000000    
     16 O     c    0.301318 *  0.238662 *  0.213140 *  -2.00000    1.000000    
     17 O     c    0.413907 *  0.691564 *  0.186710 *  -2.00000    1.000000    
     18 O     c    0.837640 *  0.694488 *  0.171269 *  -2.00000    1.000000    
     19 O     c    0.509474 *  0.349437 *  0.010485 *  -2.00000    1.000000    
     20 O     c    0.726903 *  0.230849 *  0.207778 *  -2.00000    1.000000    
     21 O     c    0.172328 *  0.541850 *  0.358322 *  -2.00000    1.000000    
     22 O     c    0.048514 *  0.101792 *  0.423600 *  -2.00000    1.000000    
     23 O     c    0.633791 *  0.531207 *  0.353550 *  -2.00000    1.000000    
     24 O     c    0.114851 *  0.399264 *  0.010169 *  -2.00000    1.000000    
     25 O     c    0.535661 *  0.429986 *  0.828521 *  -2.00000    1.000000    
     26 O     c    0.443944 *  0.638195 *  0.597308 *  -2.00000    1.000000    
     27 O     c    0.758163 *  0.265471 *  0.719551 *  -2.00000    1.000000    
     28 O     c    0.386431 *  0.000513 *  0.844846 *  -2.00000    1.000000    
--------------------------------------------------------------------------------



********************************************************************************
*  General input information                                                   *
********************************************************************************

  Species output for all configurations : 

--------------------------------------------------------------------------------
  Species    Type    Atomic    Atomic    Charge       Radii (Angs)     Library
                     Number     Mass       (e)     Cova   Ionic  VDW   Symbol
--------------------------------------------------------------------------------
    Mg       Core       12      24.31   2.000000   1.100  0.000  1.640          
    Al       Core       13      26.98   3.000000   1.350  0.000  2.050          
    O        Core        8      16.00  -2.000000   0.730  0.000  1.360          
--------------------------------------------------------------------------------


  Lattice summation method               =    Ewald          (3-D)
                                         =    Parry          (2-D)
                                         =    Saunders et al (1-D)
  Accuracy factor for lattice sums       =   12.000


  Analytic derivatives to be used

  Time limit = Infinity

  Maximum range for interatomic potentials =    100000.000000 Angstroms

  General interatomic potentials :

--------------------------------------------------------------------------------
Atom  Types   Potential      Parameter       Value         Units   Cutoffs(Ang)
  1     2                                                            Min /  Max 
--------------------------------------------------------------------------------
O    c Mg   c Lennard       Lennard-Jones A  1.5000000    eV*Ang^m  0.000  6.000
                            Lennard-Jones B  0.0000000    eV*Ang^n  
                            Exponent m        12          None
                            Exponent n         6          None
--------------------------------------------------------------------------------
O    c Al   c Lennard       Lennard-Jones A  1.5000000    eV*Ang^m  0.000  6.000
                            Lennard-Jones B  0.0000000    eV*Ang^n  
                            Exponent m        12          None
                            Exponent n         6          None
--------------------------------------------------------------------------------
O    c O    c Lennard       Lennard-Jones A  1.5000000    eV*Ang^m  0.000  6.000
                            Lennard-Jones B  0.0000000    eV*Ang^n  
                            Exponent m        12          None
                            Exponent n         6          None
--------------------------------------------------------------------------------
Mg   c Mg   c Lennard       Lennard-Jones A  1.5000000    eV*Ang^m  0.000  6.000
                            Lennard-Jones B  0.0000000    eV*Ang^n  
                            Exponent m        12          None
                            Exponent n         6          None
--------------------------------------------------------------------------------
Mg   c Al   c Lennard       Lennard-Jones A  1.5000000    eV*Ang^m  0.000  6.000
                            Lennard-Jones B  0.0000000    eV*Ang^n  
                            Exponent m        12          None
                            Exponent n         6          None
--------------------------------------------------------------------------------
Al   c Al   c Lennard       Lennard-Jones A  1.5000000    eV*Ang^m  0.000  6.000
                            Lennard-Jones B  0.0000000    eV*Ang^n  
                            Exponent m        12          None
                            Exponent n         6          None
--------------------------------------------------------------------------------
O    c Mg   c Buckingham    Buckingham A     1428.5000    eV        0.000  7.000
                            Buckingham rho  0.29450000    Ang       
                            Buckingham C     0.0000000    eV*Ang^6  
--------------------------------------------------------------------------------
O    c Al   c Buckingham    Buckingham A     1114.9000    eV        0.000  7.000
                            Buckingham rho  0.31180000    Ang       
                            Buckingham C     0.0000000    eV*Ang^6  
--------------------------------------------------------------------------------
O    c O    c Buckingham    Buckingham A     2023.8000    eV        0.000  7.000
                            Buckingham rho  0.26740000    Ang       
                            Buckingham C     0.0000000    eV*Ang^6  
--------------------------------------------------------------------------------

********************************************************************************
*  Output for configuration   1                                                *
********************************************************************************


  Components of enthalpy : 

--------------------------------------------------------------------------------
  Interatomic potentials     =         537.20531319 eV    
  Monopole - monopole (real) =        -423.48312890 eV    
  Monopole - monopole (recip)=        -466.75684494 eV    
  Monopole - monopole (total)=        -890.23997384 eV    
  Pressure*volume            =         129.93249045 eV    
--------------------------------------------------------------------------------
  Total lattice enthalpy     =        -223.10217019 eV    
--------------------------------------------------------------------------------
  Total lattice enthalpy     =          -21525.9490 kJ/(mole unit cells)
--------------------------------------------------------------------------------


  Number of variables =       87

  Maximum number of calculations  =           850
  Maximum Hessian update interval =            10
  Maximum step size               =   1.000000000
  Maximum parameter tolerance     =   0.000010000
  Maximum function  tolerance     =   0.000010000
  Maximum gradient  tolerance     =   0.001000000
  Maximum gradient  component     =   0.010000000

  Cell parameters to be optimised using strains

  Conjugate gradient optimiser to be used

  Lower half triangular hessian to be used

  Minimiser to switch to RFO
  When gradient norm is less than     0.010000

  Start of bulk optimisation :

  Cycle:      0 Energy:      -223.102170  Gnorm:     56.286098  CPU:    0.069
  Cycle:      1 Energy:      -342.672570  Gnorm:     21.115688  CPU:    0.261
  Cycle:      2 Energy:      -415.924346  Gnorm:     12.805907  CPU:    0.400
  Cycle:      3 Energy:      -486.416778  Gnorm:      7.150710  CPU:    0.594
  Cycle:      4 Energy:      -527.840504  Gnorm:      3.711649  CPU:    0.735
  Cycle:      5 Energy:      -555.971922  Gnorm:      3.637079  CPU:    0.906
  Cycle:      6 Energy:      -570.509520  Gnorm:      3.917850  CPU:    1.024
  Cycle:      7 Energy:      -580.670603  Gnorm:      2.985819  CPU:    1.144
  Cycle:      8 Energy:      -591.185450  Gnorm:      2.448868  CPU:    1.294
  Cycle:      9 Energy:      -599.410590  Gnorm:      2.106631  CPU:    1.448
  Cycle:     10 Energy:      -602.689229  Gnorm:      1.434910  CPU:    1.574
  Cycle:     11 Energy:      -606.022695  Gnorm:      1.499715  CPU:    1.730
  Cycle:     12 Energy:      -610.115126  Gnorm:      1.456633  CPU:    1.889
  Cycle:     13 Energy:      -613.900751  Gnorm:      1.355924  CPU:    2.052
  Cycle:     14 Energy:      -617.255273  Gnorm:      1.323001  CPU:    2.218
  Cycle:     15 Energy:      -620.756721  Gnorm:      1.326671  CPU:    2.388
  Cycle:     16 Energy:      -623.722458  Gnorm:      1.215201  CPU:    2.528
  Cycle:     17 Energy:      -625.521678  Gnorm:      1.008397  CPU:    2.670
  Cycle:     18 Energy:      -627.562007  Gnorm:      0.940831  CPU:    2.847
  Cycle:     19 Energy:      -629.072548  Gnorm:      0.981177  CPU:    2.991
  Cycle:     20 Energy:      -629.968041  Gnorm:      0.716900  CPU:    3.136
  Cycle:     21 Energy:      -631.040880  Gnorm:      0.698996  CPU:    3.316
  Cycle:     22 Energy:      -632.951094  Gnorm:      0.978384  CPU:    3.496
  Cycle:     23 Energy:      -634.916647  Gnorm:      1.004037  CPU:    3.643
  Cycle:     24 Energy:      -636.452968  Gnorm:      0.902810  CPU:    3.790
  Cycle:     25 Energy:      -638.158443  Gnorm:      0.777711  CPU:    3.973
  Cycle:     26 Energy:      -639.016888  Gnorm:      0.636292  CPU:    4.121
  Cycle:     27 Energy:      -639.784014  Gnorm:      0.676358  CPU:    4.307
  Cycle:     28 Energy:      -640.671243  Gnorm:      0.580853  CPU:    4.492
  Cycle:     29 Energy:      -641.217624  Gnorm:      0.462206  CPU:    4.641
  Cycle:     30 Energy:      -641.500922  Gnorm:      0.442898  CPU:    4.791
  Cycle:     31 Energy:      -641.937812  Gnorm:      0.358681  CPU:    4.976
  Cycle:     32 Energy:      -642.194304  Gnorm:      0.369450  CPU:    5.124
  Cycle:     33 Energy:      -642.481123  Gnorm:      0.400289  CPU:    5.307
  Cycle:     34 Energy:      -642.858947  Gnorm:      0.324445  CPU:    5.490
  Cycle:     35 Energy:      -643.042136  Gnorm:      0.335697  CPU:    5.637
  Cycle:     36 Energy:      -643.268837  Gnorm:      0.251105  CPU:    5.823
  Cycle:     37 Energy:      -643.425397  Gnorm:      0.255705  CPU:    6.009
  Cycle:     38 Energy:      -643.565624  Gnorm:      0.228413  CPU:    6.155
  Cycle:     39 Energy:      -643.686342  Gnorm:      0.230691  CPU:    6.345
  Cycle:     40 Energy:      -643.746410  Gnorm:      0.175530  CPU:    6.491
  Cycle:     41 Energy:      -643.822768  Gnorm:      0.185557  CPU:    6.681
  Cycle:     42 Energy:      -643.882549  Gnorm:      0.137480  CPU:    6.827
  Cycle:     43 Energy:      -643.935743  Gnorm:      0.170326  CPU:    7.016
  Cycle:     44 Energy:      -644.001293  Gnorm:      0.160315  CPU:    7.201
  Cycle:     45 Energy:      -644.065601  Gnorm:      0.178984  CPU:    7.385
  Cycle:     46 Energy:      -644.119412  Gnorm:      0.130826  CPU:    7.530
  Cycle:     47 Energy:      -644.157270  Gnorm:      0.115189  CPU:    7.718
  Cycle:     48 Energy:      -644.190726  Gnorm:      0.130172  CPU:    7.903
  Cycle:     49 Energy:      -644.224524  Gnorm:      0.116666  CPU:    8.048
  Cycle:     50 Energy:      -644.240302  Gnorm:      0.092161  CPU:    8.198
  Cycle:     51 Energy:      -644.257893  Gnorm:      0.080083  CPU:    8.383
  Cycle:     52 Energy:      -644.274826  Gnorm:      0.081409  CPU:    8.564
  Cycle:     53 Energy:      -644.292269  Gnorm:      0.088741  CPU:    8.745
  Cycle:     54 Energy:      -644.309678  Gnorm:      0.087945  CPU:    8.890
  Cycle:     55 Energy:      -644.327363  Gnorm:      0.086251  CPU:    9.071
  Cycle:     56 Energy:      -644.342564  Gnorm:      0.079857  CPU:    9.217
  Cycle:     57 Energy:      -644.362060  Gnorm:      0.092166  CPU:    9.397
  Cycle:     58 Energy:      -644.386755  Gnorm:      0.099529  CPU:    9.578
  Cycle:     59 Energy:      -644.410064  Gnorm:      0.119951  CPU:    9.723
  Cycle:     60 Energy:      -644.423212  Gnorm:      0.074998  CPU:    9.868
  Cycle:     61 Energy:      -644.436164  Gnorm:      0.068669  CPU:   10.014
  Cycle:     62 Energy:      -644.445523  Gnorm:      0.051526  CPU:   10.159
  Cycle:     63 Energy:      -644.451759  Gnorm:      0.052022  CPU:   10.304
  Cycle:     64 Energy:      -644.458735  Gnorm:      0.050361  CPU:   10.484
  Cycle:     65 Energy:      -644.464791  Gnorm:      0.044681  CPU:   10.629
  Cycle:     66 Energy:      -644.469596  Gnorm:      0.043123  CPU:   10.774
  Cycle:     67 Energy:      -644.473572  Gnorm:      0.045763  CPU:   10.924
  Cycle:     68 Energy:      -644.478194  Gnorm:      0.049210  CPU:   11.111
  Cycle:     69 Energy:      -644.484192  Gnorm:      0.060528  CPU:   11.295
  Cycle:     70 Energy:      -644.489067  Gnorm:      0.045017  CPU:   11.440
  Cycle:     71 Energy:      -644.492743  Gnorm:      0.040751  CPU:   11.589
  Cycle:     72 Energy:      -644.496069  Gnorm:      0.038383  CPU:   11.738
  Cycle:     73 Energy:      -644.499844  Gnorm:      0.040796  CPU:   11.925
  Cycle:     74 Energy:      -644.504625  Gnorm:      0.045075  CPU:   12.108
  Cycle:     75 Energy:      -644.510382  Gnorm:      0.048472  CPU:   12.291
  Cycle:     76 Energy:      -644.516271  Gnorm:      0.050342  CPU:   12.436
  Cycle:     77 Energy:      -644.524488  Gnorm:      0.071041  CPU:   12.623
  Cycle:     78 Energy:      -644.537889  Gnorm:      0.081539  CPU:   12.806
  Cycle:     79 Energy:      -644.556223  Gnorm:      0.123362  CPU:   12.950
  Cycle:     80 Energy:      -644.570642  Gnorm:      0.073767  CPU:   13.098
  Cycle:     81 Energy:      -644.585539  Gnorm:      0.084260  CPU:   13.284
  Cycle:     82 Energy:      -644.599988  Gnorm:      0.067029  CPU:   13.428
  Cycle:     83 Energy:      -644.611027  Gnorm:      0.077139  CPU:   13.576
  Cycle:     84 Energy:      -644.625798  Gnorm:      0.080639  CPU:   13.762
  Cycle:     85 Energy:      -644.639755  Gnorm:      0.087519  CPU:   13.910
  Cycle:     86 Energy:      -644.657086  Gnorm:      0.095414  CPU:   14.100
  Cycle:     87 Energy:      -644.685121  Gnorm:      0.121784  CPU:   14.283
  Cycle:     88 Energy:      -644.743917  Gnorm:      0.175355  CPU:   14.467
  Cycle:     89 Energy:      -644.809969  Gnorm:      0.180694  CPU:   14.610
  Cycle:     90 Energy:      -644.903747  Gnorm:      0.179002  CPU:   14.797
  Cycle:     91 Energy:      -644.970938  Gnorm:      0.155235  CPU:   14.939
  Cycle:     92 Energy:      -645.021297  Gnorm:      0.145289  CPU:   15.124
  Cycle:     93 Energy:      -645.056756  Gnorm:      0.127584  CPU:   15.265
  Cycle:     94 Energy:      -645.087788  Gnorm:      0.120115  CPU:   15.453
  Cycle:     95 Energy:      -645.117920  Gnorm:      0.099786  CPU:   15.633
  Cycle:     96 Energy:      -645.139447  Gnorm:      0.094662  CPU:   15.813
  Cycle:     97 Energy:      -645.163755  Gnorm:      0.102820  CPU:   15.992
  Cycle:     98 Energy:      -645.183942  Gnorm:      0.100801  CPU:   16.133
  Cycle:     99 Energy:      -645.205443  Gnorm:      0.108518  CPU:   16.316
  Cycle:    100 Energy:      -645.219190  Gnorm:      0.077958  CPU:   16.457
  Cycle:    101 Energy:      -645.230522  Gnorm:      0.075458  CPU:   16.639
  Cycle:    102 Energy:      -645.243886  Gnorm:      0.069246  CPU:   16.818
  Cycle:    103 Energy:      -645.254178  Gnorm:      0.072702  CPU:   16.997
  Cycle:    104 Energy:      -645.266320  Gnorm:      0.074295  CPU:   17.137
  Cycle:    105 Energy:      -645.277622  Gnorm:      0.072272  CPU:   17.285
  Cycle:    106 Energy:      -645.286806  Gnorm:      0.067987  CPU:   17.431
  Cycle:    107 Energy:      -645.298545  Gnorm:      0.071592  CPU:   17.609
  Cycle:    108 Energy:      -645.313913  Gnorm:      0.076152  CPU:   17.783
  Cycle:    109 Energy:      -645.327605  Gnorm:      0.066277  CPU:   17.924
  Cycle:    110 Energy:      -645.335336  Gnorm:      0.060892  CPU:   18.065
  Cycle:    111 Energy:      -645.343591  Gnorm:      0.050081  CPU:   18.209
  Cycle:    112 Energy:      -645.349389  Gnorm:      0.041600  CPU:   18.350
  Cycle:    113 Energy:      -645.353922  Gnorm:      0.045777  CPU:   18.491
  Cycle:    114 Energy:      -645.358435  Gnorm:      0.041232  CPU:   18.632
  Cycle:    115 Energy:      -645.362163  Gnorm:      0.040608  CPU:   18.772
  Cycle:    116 Energy:      -645.364970  Gnorm:      0.041582  CPU:   18.913
  Cycle:    117 Energy:      -645.369113  Gnorm:      0.039751  CPU:   19.058
  Cycle:    118 Energy:      -645.373174  Gnorm:      0.036260  CPU:   19.202
  Cycle:    119 Energy:      -645.377193  Gnorm:      0.057129  CPU:   19.347
  Cycle:    120 Energy:      -645.379944  Gnorm:      0.030667  CPU:   19.492
  Cycle:    121 Energy:      -645.382172  Gnorm:      0.032118  CPU:   19.636
  Cycle:    122 Energy:      -645.384372  Gnorm:      0.031261  CPU:   19.781
  Cycle:    123 Energy:      -645.386329  Gnorm:      0.027468  CPU:   19.925
  Cycle:    124 Energy:      -645.388215  Gnorm:      0.029175  CPU:   20.070
  Cycle:    125 Energy:      -645.389793  Gnorm:      0.030950  CPU:   20.215
  Cycle:    126 Energy:      -645.391577  Gnorm:      0.024901  CPU:   20.359
  Cycle:    127 Energy:      -645.393569  Gnorm:      0.028080  CPU:   20.504
  Cycle:    128 Energy:      -645.395799  Gnorm:      0.028481  CPU:   20.649
  Cycle:    129 Energy:      -645.397379  Gnorm:      0.024337  CPU:   20.793
  Cycle:    130 Energy:      -645.398444  Gnorm:      0.024371  CPU:   20.938
  Cycle:    131 Energy:      -645.399878  Gnorm:      0.022049  CPU:   21.083
  Cycle:    132 Energy:      -645.400868  Gnorm:      0.021137  CPU:   21.228
  Cycle:    133 Energy:      -645.401593  Gnorm:      0.019818  CPU:   21.372
  Cycle:    134 Energy:      -645.402544  Gnorm:      0.019645  CPU:   21.517
  Cycle:    135 Energy:      -645.403303  Gnorm:      0.017531  CPU:   21.662
  Cycle:    136 Energy:      -645.404081  Gnorm:      0.017699  CPU:   21.807
  Cycle:    137 Energy:      -645.404842  Gnorm:      0.019010  CPU:   21.952
  Cycle:    138 Energy:      -645.405475  Gnorm:      0.016584  CPU:   22.096
  Cycle:    139 Energy:      -645.406018  Gnorm:      0.017999  CPU:   22.278
  Cycle:    140 Energy:      -645.406462  Gnorm:      0.014531  CPU:   22.419
  Cycle:    141 Energy:      -645.406912  Gnorm:      0.015156  CPU:   22.563
  Cycle:    142 Energy:      -645.407366  Gnorm:      0.013950  CPU:   22.708
  Cycle:    143 Energy:      -645.407809  Gnorm:      0.012734  CPU:   22.852
  Cycle:    144 Energy:      -645.408204  Gnorm:      0.014063  CPU:   22.997
  Cycle:    145 Energy:      -645.408621  Gnorm:      0.013637  CPU:   23.142
  Cycle:    146 Energy:      -645.408951  Gnorm:      0.013330  CPU:   23.286
  Cycle:    147 Energy:      -645.409331  Gnorm:      0.013194  CPU:   23.431
  Cycle:    148 Energy:      -645.409811  Gnorm:      0.012533  CPU:   23.576
  Cycle:    149 Energy:      -645.410089  Gnorm:      0.012014  CPU:   23.720
  Cycle:    150 Energy:      -645.410313  Gnorm:      0.011112  CPU:   23.865
  Cycle:    151 Energy:      -645.410657  Gnorm:      0.010372  CPU:   24.009
  Cycle:    152 Energy:      -645.410876  Gnorm:      0.010503  CPU:   24.154
  Cycle:    153 Energy:      -645.411070  Gnorm:      0.009903  CPU:   24.298
  ** Hessian has required structure
  Cycle:    154 Energy:      -645.413448  Gnorm:      0.006756  CPU:   24.683
  ** Hessian has required structure
  Cycle:    155 Energy:      -645.415348  Gnorm:      0.002470  CPU:   24.913
  ** Hessian has required structure
  Cycle:    156 Energy:      -645.415574  Gnorm:      0.000646  CPU:   25.076
  ** Hessian has required structure


  **** Optimisation achieved ****


  Final enthalpy =    -645.41557650 eV      
  Final Gnorm    =       0.00009254

  Components of enthalpy : 

--------------------------------------------------------------------------------
  Interatomic potentials     =         219.80761615 eV    
  Monopole - monopole (real) =        -502.45535165 eV    
  Monopole - monopole (recip)=        -490.36798120 eV    
  Monopole - monopole (total)=        -992.82333284 eV    
  Pressure*volume            =         127.60014020 eV    
--------------------------------------------------------------------------------
  Total lattice enthalpy     =        -645.41557650 eV    
--------------------------------------------------------------------------------
  Total lattice enthalpy     =          -62272.7371 kJ/(mole unit cells)
--------------------------------------------------------------------------------

  Final fractional coordinates of atoms :

--------------------------------------------------------------------------------
   No.  Atomic        x           y          z          Radius
        Label       (Frac)      (Frac)     (Frac)       (Angs) 
--------------------------------------------------------------------------------
     1  Al    c     0.134192    0.445154    0.183446    0.000000
     2  Al    c     0.526008    0.861577    0.324685    0.000000
     3  Al    c     0.621286    0.465690    0.175442    0.000000
     4  Al    c     0.013102    0.882093    0.316682    0.000000
     5  Al    c     0.856683    0.525702    0.663510    0.000000
     6  Al    c     0.290611    0.801570    0.836615    0.000000
     7  Al    c     0.337687    0.496224    0.644127    0.000000
     8  Al    c     0.809629    0.831067    0.856013    0.000000
     9  Mg    c     0.494037    0.162294    0.534320    0.000000
    10  Mg    c     0.201835    0.164288    0.978527    0.000000
    11  Mg    c     0.653252    0.164972    0.965809    0.000000
    12  Mg    c     0.945467    0.162988    0.521595    0.000000
    13  O     c     0.403074    0.236115    0.246958    0.000000
    14  O     c     0.107383    0.690767    0.600919    0.000000
    15  O     c     0.710628    0.873347    0.563853    0.000000
    16  O     c     0.985960    0.130814    0.089621    0.000000
    17  O     c     0.411223    0.796419    0.096229    0.000000
    18  O     c     0.869535    0.634769    0.126298    0.000000
    19  O     c     0.436665    0.453920    0.936274    0.000000
    20  O     c     0.744219    0.091152    0.253166    0.000000
    21  O     c     0.277765    0.692478    0.373838    0.000000
    22  O     c     0.161328    0.196418    0.410495    0.000000
    23  O     c     0.736070    0.530857    0.403893    0.000000
    24  O     c     0.039913    0.636496    0.899213    0.000000
    25  O     c     0.604968    0.433811    0.704354    0.000000
    26  O     c     0.542335    0.893434    0.795776    0.000000
    27  O     c     0.901818    0.168145    0.756721    0.000000
    28  O     c     0.245496    0.159128    0.743398    0.000000
--------------------------------------------------------------------------------

  Final Cartesian lattice vectors (Angstroms) :

        6.174242   -0.474322   -1.585153
       -0.253367    4.827854    0.958793
       -1.527650    1.244556    7.487950


  Final cell parameters and derivatives :

--------------------------------------------------------------------------------
       a            6.392101 Angstrom     dE/de1(xx)    -0.000372 eV/strain
       b            4.928656 Angstrom     dE/de2(yy)     0.000118 eV/strain
       c            7.742869 Angstrom     dE/de3(zz)     0.000070 eV/strain
       alpha       69.162393 Degrees      dE/de4(yz)     0.001790 eV/strain
       beta       116.252151 Degrees      dE/de5(xz)     0.000353 eV/strain
       gamma       99.821742 Degrees      dE/de6(xy)    -0.000717 eV/strain
--------------------------------------------------------------------------------

  Primitive cell volume =           204.439541 Angs**3

  Density of cell =      4.622367 g/cm**3

  Non-primitive cell volume =           204.439541 Angs**3


  Final internal derivatives :

--------------------------------------------------------------------------------
   No.  Atomic          a             b             c           Radius
        Label          (eV)          (eV)          (eV)        (eV/Angs)
--------------------------------------------------------------------------------
      1 Al    c       0.000000      0.000000      0.000000      0.000000
      2 Al    c      -0.000228      0.000569      0.000216      0.000000
      3 Al    c       0.000349     -0.000183     -0.000113      0.000000
      4 Al    c       0.000766     -0.001117      0.000340      0.000000
      5 Al    c       0.000702      0.000199     -0.000917      0.000000
      6 Al    c      -0.000815     -0.000374     -0.000304      0.000000
      7 Al    c       0.001681      0.000161     -0.001811      0.000000
      8 Al    c      -0.001400      0.001216      0.002562      0.000000
      9 Mg    c      -0.002009      0.000898      0.001241      0.000000
     10 Mg    c      -0.001068      0.000756      0.001385      0.000000
     11 Mg    c       0.000843     -0.000073     -0.000702      0.000000
     12 Mg    c       0.000335      0.000045     -0.000734      0.000000
     13 O     c       0.000759     -0.000542     -0.000337      0.000000
     14 O     c      -0.000625      0.000553      0.001564      0.000000
     15 O     c       0.000324     -0.000359     -0.000352      0.000000
     16 O     c       0.000336      0.000747     -0.001427      0.000000
     17 O     c      -0.000758     -0.000289      0.000805      0.000000
     18 O     c      -0.001654     -0.000421      0.000632      0.000000
     19 O     c       0.000078      0.000733      0.000473      0.000000
     20 O     c      -0.000067      0.000437     -0.000142      0.000000
     21 O     c       0.001158      0.001216      0.000242      0.000000
     22 O     c       0.000256     -0.000927      0.001254      0.000000
     23 O     c      -0.000569     -0.000036      0.000102      0.000000
     24 O     c      -0.000230     -0.000271     -0.001845      0.000000
     25 O     c       0.000714     -0.000146      0.000031      0.000000
     26 O     c      -0.000478     -0.001518     -0.000726      0.000000
     27 O     c       0.000422      0.000030      0.000213      0.000000
     28 O     c      -0.000196     -0.000915     -0.001129      0.000000
--------------------------------------------------------------------------------
  Maximum abs         0.002009      0.001518      0.002562      0.000000
--------------------------------------------------------------------------------


  Time to end of optimisation =      25.2400 seconds


  Peak dynamic memory used =       2.03 MB 


  Timing analysis for GULP :

--------------------------------------------------------------------------------
  Task / Subroutine                                          Time (Seconds)
--------------------------------------------------------------------------------
  Calculation of reciprocal space energy and derivatives          0.4562
  Calculation of real space energy and derivatives               24.6611
  Calculation and manipulation of Hessian matrix                  0.0754
  Global summation overhead                                       0.0010
--------------------------------------------------------------------------------
  Total CPU time                                                 25.2401
--------------------------------------------------------------------------------


  Job Finished at 16:03.40 11th June       2024                               

