********************************************************************************
*                       GENERAL UTILITY LATTICE PROGRAM                        *
*                                 Julian Gale                                  *
*                       Curtin Institute for Computation                       *
*                    School of Molecular and Life Sciences                     *
*                    Curtin University, Western Australia                      *
********************************************************************************
* Version = 6.0.0 * Last modified =  12th July 2021                            *
********************************************************************************
*  optimise     - perform optimisation run                                     *
*  conp         - constant pressure calculation                                *
*  nosymmetry   - turn off symmetry after initial structure generation         *
*  conjugate    - use conjugate gradients minimiser                            *
********************************************************************************

  Job Started  at 15:58.08 11th June       2024                               

  Number of CPUs =     1


  Total number of configurations input =      1

********************************************************************************
*  Input for Configuration =   1                                               *
********************************************************************************

  Formula = Al8Mg4O16                                                   

  Number of irreducible atoms/shells =      28


  Total number atoms/shells =      28

  Dimensionality = 3               :  Bulk   



  Cartesian lattice vectors (Angstroms) :

        7.216857   -1.960897    0.068783
       -0.102304    6.525310    0.001665
        0.019961    0.033122    4.439728

  Cell parameters (Angstroms/Degrees):

  a =       7.4788    alpha =  89.5620
  b =       6.5261    beta  =  89.3366
  c =       4.4399    gamma = 106.0983

  Initial cell volume =         208.176407 Angs**3

  Temperature of configuration =   0.00     K 

  Pressure of configuration =       100.000 GPa 

  Fractional coordinates of asymmetric unit :

--------------------------------------------------------------------------------
   No.  Atomic       x           y          z         Charge      Occupancy
        Label      (Frac)      (Frac)     (Frac)        (e)         (Frac)  
--------------------------------------------------------------------------------
      1 Al    c    0.576760    0.146559    0.811335     3.00000    1.000000    
      2 Al    c    0.256066 *  0.969043 *  0.722555 *   3.00000    1.000000    
      3 Al    c    0.576766 *  0.124235 *  0.212552 *   3.00000    1.000000    
      4 Al    c    0.256067 *  0.301752 *  0.123775 *   3.00000    1.000000    
      5 Al    c    0.787810 *  0.327325 *  0.562265 *   3.00000    1.000000    
      6 Al    c    0.060997 *  0.010273 *  0.196679 *   3.00000    1.000000    
      7 Al    c    0.986914 *  0.146951 *  0.617098 *   3.00000    1.000000    
      8 Al    c    0.080812 *  0.028613 *  0.567169 *   3.00000    1.000000    
      9 Mg    c    0.541178 *  0.545434 *  0.616295 *   2.00000    1.000000    
     10 Mg    c    0.541171 *  0.725362 *  0.017506 *   2.00000    1.000000    
     11 Mg    c    0.058283 *  0.409835 *  0.293379 *   2.00000    1.000000    
     12 Mg    c    0.805058 *  0.992463 *  0.868055 *   2.00000    1.000000    
     13 O     c    0.220657 *  0.571498 *  0.099385 *  -2.00000    1.000000    
     14 O     c    0.498257 *  0.373409 *  0.012312 *  -2.00000    1.000000    
     15 O     c    0.612357 *  0.976481 *  0.046444 *  -2.00000    1.000000    
     16 O     c    0.274055 *  0.005045 *  0.505616 *  -2.00000    1.000000    
     17 O     c    0.044032 *  0.344243 *  0.448423 *  -2.00000    1.000000    
     18 O     c    0.044033 *  0.926551 *  0.047205 *  -2.00000    1.000000    
     19 O     c    0.274050 *  0.068180 *  0.104402 *  -2.00000    1.000000    
     20 O     c    0.612362 *  0.294313 *  0.447656 *  -2.00000    1.000000    
     21 O     c    0.498261 *  0.897386 *  0.413529 *  -2.00000    1.000000    
     22 O     c    0.220656 *  0.699296 *  0.698169 *  -2.00000    1.000000    
     23 O     c    0.049201 *  0.415629 *  0.927285 *  -2.00000    1.000000    
     24 O     c    0.166295 *  0.917641 *  0.886473 *  -2.00000    1.000000    
     25 O     c    0.752844 *  0.288833 *  0.056614 *  -2.00000    1.000000    
     26 O     c    0.706074 *  0.456425 *  0.900933 *  -2.00000    1.000000    
     27 O     c    0.935249 *  0.682977 *  0.295665 *  -2.00000    1.000000    
     28 O     c    0.770603 *  0.873843 *  0.286308 *  -2.00000    1.000000    
--------------------------------------------------------------------------------



********************************************************************************
*  General input information                                                   *
********************************************************************************

  Species output for all configurations : 

--------------------------------------------------------------------------------
  Species    Type    Atomic    Atomic    Charge       Radii (Angs)     Library
                     Number     Mass       (e)     Cova   Ionic  VDW   Symbol
--------------------------------------------------------------------------------
    Mg       Core       12      24.31   2.000000   1.100  0.000  1.640          
    Al       Core       13      26.98   3.000000   1.350  0.000  2.050          
    O        Core        8      16.00  -2.000000   0.730  0.000  1.360          
--------------------------------------------------------------------------------


  Lattice summation method               =    Ewald          (3-D)
                                         =    Parry          (2-D)
                                         =    Saunders et al (1-D)
  Accuracy factor for lattice sums       =   12.000


  Analytic derivatives to be used

  Time limit = Infinity

  Maximum range for interatomic potentials =    100000.000000 Angstroms

  General interatomic potentials :

--------------------------------------------------------------------------------
Atom  Types   Potential      Parameter       Value         Units   Cutoffs(Ang)
  1     2                                                            Min /  Max 
--------------------------------------------------------------------------------
O    c Mg   c Lennard       Lennard-Jones A  1.5000000    eV*Ang^m  0.000  6.000
                            Lennard-Jones B  0.0000000    eV*Ang^n  
                            Exponent m        12          None
                            Exponent n         6          None
--------------------------------------------------------------------------------
O    c Al   c Lennard       Lennard-Jones A  1.5000000    eV*Ang^m  0.000  6.000
                            Lennard-Jones B  0.0000000    eV*Ang^n  
                            Exponent m        12          None
                            Exponent n         6          None
--------------------------------------------------------------------------------
O    c O    c Lennard       Lennard-Jones A  1.5000000    eV*Ang^m  0.000  6.000
                            Lennard-Jones B  0.0000000    eV*Ang^n  
                            Exponent m        12          None
                            Exponent n         6          None
--------------------------------------------------------------------------------
Mg   c Mg   c Lennard       Lennard-Jones A  1.5000000    eV*Ang^m  0.000  6.000
                            Lennard-Jones B  0.0000000    eV*Ang^n  
                            Exponent m        12          None
                            Exponent n         6          None
--------------------------------------------------------------------------------
Mg   c Al   c Lennard       Lennard-Jones A  1.5000000    eV*Ang^m  0.000  6.000
                            Lennard-Jones B  0.0000000    eV*Ang^n  
                            Exponent m        12          None
                            Exponent n         6          None
--------------------------------------------------------------------------------
Al   c Al   c Lennard       Lennard-Jones A  1.5000000    eV*Ang^m  0.000  6.000
                            Lennard-Jones B  0.0000000    eV*Ang^n  
                            Exponent m        12          None
                            Exponent n         6          None
--------------------------------------------------------------------------------
O    c Mg   c Buckingham    Buckingham A     1428.5000    eV        0.000  7.000
                            Buckingham rho  0.29450000    Ang       
                            Buckingham C     0.0000000    eV*Ang^6  
--------------------------------------------------------------------------------
O    c Al   c Buckingham    Buckingham A     1114.9000    eV        0.000  7.000
                            Buckingham rho  0.31180000    Ang       
                            Buckingham C     0.0000000    eV*Ang^6  
--------------------------------------------------------------------------------
O    c O    c Buckingham    Buckingham A     2023.8000    eV        0.000  7.000
                            Buckingham rho  0.26740000    Ang       
                            Buckingham C     0.0000000    eV*Ang^6  
--------------------------------------------------------------------------------

********************************************************************************
*  Output for configuration   1                                                *
********************************************************************************


  Components of enthalpy : 

--------------------------------------------------------------------------------
  Interatomic potentials     =         578.50895472 eV    
  Monopole - monopole (real) =        -327.15695119 eV    
  Monopole - monopole (recip)=        -436.64058347 eV    
  Monopole - monopole (total)=        -763.79753465 eV    
  Pressure*volume            =         129.93249045 eV    
--------------------------------------------------------------------------------
  Total lattice enthalpy     =         -55.35608949 eV    
--------------------------------------------------------------------------------
  Total lattice enthalpy     =           -5341.0164 kJ/(mole unit cells)
--------------------------------------------------------------------------------


  Number of variables =       87

  Maximum number of calculations  =           850
  Maximum Hessian update interval =            10
  Maximum step size               =   1.000000000
  Maximum parameter tolerance     =   0.000010000
  Maximum function  tolerance     =   0.000010000
  Maximum gradient  tolerance     =   0.001000000
  Maximum gradient  component     =   0.010000000

  Cell parameters to be optimised using strains

  Conjugate gradient optimiser to be used

  Lower half triangular hessian to be used

  Minimiser to switch to RFO
  When gradient norm is less than     0.010000

  Start of bulk optimisation :

  Cycle:      0 Energy:       -55.356089  Gnorm:     58.782298  CPU:    0.038
  Cycle:      1 Energy:      -291.355217  Gnorm:     29.127611  CPU:    0.108
  Cycle:      2 Energy:      -416.422971  Gnorm:      8.888774  CPU:    0.188
  Cycle:      3 Energy:      -508.839124  Gnorm:      5.964220  CPU:    0.247
  Cycle:      4 Energy:      -545.540487  Gnorm:      3.673022  CPU:    0.317
  Cycle:      5 Energy:      -567.373928  Gnorm:      3.581259  CPU:    0.376
  Cycle:      6 Energy:      -580.741689  Gnorm:      2.907798  CPU:    0.457
  Cycle:      7 Energy:      -588.917040  Gnorm:      1.952444  CPU:    0.543
  Cycle:      8 Energy:      -595.105379  Gnorm:      1.827585  CPU:    0.629
  Cycle:      9 Energy:      -599.294606  Gnorm:      1.325862  CPU:    0.716
  Cycle:     10 Energy:      -601.466309  Gnorm:      1.274062  CPU:    0.803
  Cycle:     11 Energy:      -603.795084  Gnorm:      1.250551  CPU:    0.890
  Cycle:     12 Energy:      -606.889834  Gnorm:      1.477020  CPU:    1.012
  Cycle:     13 Energy:      -610.498003  Gnorm:      1.388953  CPU:    1.144
  Cycle:     14 Energy:      -612.442029  Gnorm:      1.092018  CPU:    1.252
  Cycle:     15 Energy:      -614.316161  Gnorm:      1.062237  CPU:    1.387
  Cycle:     16 Energy:      -615.948240  Gnorm:      0.879527  CPU:    1.497
  Cycle:     17 Energy:      -617.390125  Gnorm:      1.121679  CPU:    1.635
  Cycle:     18 Energy:      -620.101850  Gnorm:      1.152803  CPU:    1.747
  Cycle:     19 Energy:      -622.767425  Gnorm:      1.270465  CPU:    1.825
  Cycle:     20 Energy:      -624.034934  Gnorm:      0.810011  CPU:    1.903
  Cycle:     21 Energy:      -625.457732  Gnorm:      0.825245  CPU:    1.999
  Cycle:     22 Energy:      -626.589118  Gnorm:      0.793095  CPU:    2.077
  Cycle:     23 Energy:      -627.626497  Gnorm:      0.681915  CPU:    2.174
  Cycle:     24 Energy:      -628.379445  Gnorm:      0.595008  CPU:    2.272
  Cycle:     25 Energy:      -629.003154  Gnorm:      0.560012  CPU:    2.369
  Cycle:     26 Energy:      -629.577388  Gnorm:      0.472866  CPU:    2.467
  Cycle:     27 Energy:      -630.056138  Gnorm:      0.492872  CPU:    2.565
  Cycle:     28 Energy:      -630.504723  Gnorm:      0.472515  CPU:    2.645
  Cycle:     29 Energy:      -631.024789  Gnorm:      0.426996  CPU:    2.744
  Cycle:     30 Energy:      -631.290461  Gnorm:      0.439067  CPU:    2.824
  Cycle:     31 Energy:      -631.621167  Gnorm:      0.406280  CPU:    2.923
  Cycle:     32 Energy:      -631.957515  Gnorm:      0.371458  CPU:    3.022
  Cycle:     33 Energy:      -632.286973  Gnorm:      0.505786  CPU:    3.121
  Cycle:     34 Energy:      -632.803062  Gnorm:      0.537611  CPU:    3.220
  Cycle:     35 Energy:      -633.703935  Gnorm:      0.818262  CPU:    3.320
  Cycle:     36 Energy:      -634.521259  Gnorm:      0.784857  CPU:    3.401
  Cycle:     37 Energy:      -635.518346  Gnorm:      0.800328  CPU:    3.483
  Cycle:     38 Energy:      -636.472223  Gnorm:      0.782201  CPU:    3.584
  Cycle:     39 Energy:      -637.719730  Gnorm:      0.641285  CPU:    3.744
  Cycle:     40 Energy:      -638.268033  Gnorm:      0.578617  CPU:    3.874
  Cycle:     41 Energy:      -638.854642  Gnorm:      0.506700  CPU:    4.036
  Cycle:     42 Energy:      -639.196760  Gnorm:      0.459584  CPU:    4.168
  Cycle:     43 Energy:      -639.750269  Gnorm:      0.527627  CPU:    4.333
  Cycle:     44 Energy:      -640.218756  Gnorm:      0.425831  CPU:    4.466
  Cycle:     45 Energy:      -640.572436  Gnorm:      0.416609  CPU:    4.631
  Cycle:     46 Energy:      -640.861532  Gnorm:      0.342723  CPU:    4.763
  Cycle:     47 Energy:      -641.125608  Gnorm:      0.307194  CPU:    4.927
  Cycle:     48 Energy:      -641.290450  Gnorm:      0.293605  CPU:    5.060
  Cycle:     49 Energy:      -641.479770  Gnorm:      0.299708  CPU:    5.224
  Cycle:     50 Energy:      -641.568602  Gnorm:      0.238537  CPU:    5.357
  Cycle:     51 Energy:      -641.710573  Gnorm:      0.233876  CPU:    5.521
  Cycle:     52 Energy:      -641.823131  Gnorm:      0.236945  CPU:    5.653
  Cycle:     53 Energy:      -641.955611  Gnorm:      0.226868  CPU:    5.818
  Cycle:     54 Energy:      -642.066820  Gnorm:      0.243078  CPU:    5.982
  Cycle:     55 Energy:      -642.190840  Gnorm:      0.248221  CPU:    6.146
  Cycle:     56 Energy:      -642.327347  Gnorm:      0.212641  CPU:    6.309
  Cycle:     57 Energy:      -642.463208  Gnorm:      0.274308  CPU:    6.472
  Cycle:     58 Energy:      -642.615582  Gnorm:      0.249290  CPU:    6.603
  Cycle:     59 Energy:      -642.754393  Gnorm:      0.273580  CPU:    6.766
  Cycle:     60 Energy:      -642.821546  Gnorm:      0.182835  CPU:    6.897
  Cycle:     61 Energy:      -642.914208  Gnorm:      0.202020  CPU:    7.059
  Cycle:     62 Energy:      -642.983221  Gnorm:      0.171426  CPU:    7.190
  Cycle:     63 Energy:      -643.044760  Gnorm:      0.184805  CPU:    7.354
  Cycle:     64 Energy:      -643.130410  Gnorm:      0.183777  CPU:    7.517
  Cycle:     65 Energy:      -643.218615  Gnorm:      0.197117  CPU:    7.681
  Cycle:     66 Energy:      -643.304895  Gnorm:      0.210159  CPU:    7.813
  Cycle:     67 Energy:      -643.382556  Gnorm:      0.195909  CPU:    7.945
  Cycle:     68 Energy:      -643.444187  Gnorm:      0.169075  CPU:    8.077
  Cycle:     69 Energy:      -643.510316  Gnorm:      0.163493  CPU:    8.241
  Cycle:     70 Energy:      -643.545889  Gnorm:      0.149818  CPU:    8.373
  Cycle:     71 Energy:      -643.586484  Gnorm:      0.135317  CPU:    8.506
  Cycle:     72 Energy:      -643.622734  Gnorm:      0.140533  CPU:    8.670
  Cycle:     73 Energy:      -643.663422  Gnorm:      0.117520  CPU:    8.833
  Cycle:     74 Energy:      -643.695413  Gnorm:      0.096134  CPU:    8.965
  Cycle:     75 Energy:      -643.718685  Gnorm:      0.106020  CPU:    9.128
  Cycle:     76 Energy:      -643.733661  Gnorm:      0.085980  CPU:    9.259
  Cycle:     77 Energy:      -643.752150  Gnorm:      0.097470  CPU:    9.421
  Cycle:     78 Energy:      -643.773645  Gnorm:      0.097036  CPU:    9.552
  Cycle:     79 Energy:      -643.788673  Gnorm:      0.102978  CPU:    9.683
  Cycle:     80 Energy:      -643.799525  Gnorm:      0.079668  CPU:    9.814
  Cycle:     81 Energy:      -643.812280  Gnorm:      0.076094  CPU:    9.945
  Cycle:     82 Energy:      -643.822830  Gnorm:      0.066600  CPU:   10.076
  Cycle:     83 Energy:      -643.831390  Gnorm:      0.073451  CPU:   10.207
  Cycle:     84 Energy:      -643.843720  Gnorm:      0.071995  CPU:   10.338
  Cycle:     85 Energy:      -643.857028  Gnorm:      0.078232  CPU:   10.501
  Cycle:     86 Energy:      -643.867345  Gnorm:      0.078385  CPU:   10.632
  Cycle:     87 Energy:      -643.880026  Gnorm:      0.065761  CPU:   10.763
  Cycle:     88 Energy:      -643.893121  Gnorm:      0.074168  CPU:   10.926
  Cycle:     89 Energy:      -643.904097  Gnorm:      0.088397  CPU:   11.057
  Cycle:     90 Energy:      -643.912617  Gnorm:      0.067251  CPU:   11.189
  Cycle:     91 Energy:      -643.921086  Gnorm:      0.061905  CPU:   11.321
  Cycle:     92 Energy:      -643.927498  Gnorm:      0.061060  CPU:   11.452
  Cycle:     93 Energy:      -643.935928  Gnorm:      0.054214  CPU:   11.615
  Cycle:     94 Energy:      -643.943847  Gnorm:      0.053072  CPU:   11.777
  Cycle:     95 Energy:      -643.949136  Gnorm:      0.051283  CPU:   11.908
  Cycle:     96 Energy:      -643.953603  Gnorm:      0.042278  CPU:   12.038
  Cycle:     97 Energy:      -643.958296  Gnorm:      0.048287  CPU:   12.201
  Cycle:     98 Energy:      -643.962983  Gnorm:      0.046075  CPU:   12.331
  Cycle:     99 Energy:      -643.967054  Gnorm:      0.058226  CPU:   12.462
  Cycle:    100 Energy:      -643.970597  Gnorm:      0.042971  CPU:   12.592
  Cycle:    101 Energy:      -643.974544  Gnorm:      0.043538  CPU:   12.754
  Cycle:    102 Energy:      -643.978447  Gnorm:      0.039131  CPU:   12.885
  Cycle:    103 Energy:      -643.981700  Gnorm:      0.044755  CPU:   13.015
  Cycle:    104 Energy:      -643.985556  Gnorm:      0.044244  CPU:   13.177
  Cycle:    105 Energy:      -643.990098  Gnorm:      0.045778  CPU:   13.339
  Cycle:    106 Energy:      -643.993703  Gnorm:      0.047441  CPU:   13.470
  Cycle:    107 Energy:      -643.998023  Gnorm:      0.041837  CPU:   13.601
  Cycle:    108 Energy:      -644.002508  Gnorm:      0.045865  CPU:   13.732
  Cycle:    109 Energy:      -644.007201  Gnorm:      0.053737  CPU:   13.862
  Cycle:    110 Energy:      -644.011271  Gnorm:      0.043119  CPU:   13.993
  Cycle:    111 Energy:      -644.014944  Gnorm:      0.036598  CPU:   14.123
  Cycle:    112 Energy:      -644.018267  Gnorm:      0.039508  CPU:   14.254
  Cycle:    113 Energy:      -644.020865  Gnorm:      0.037248  CPU:   14.384
  Cycle:    114 Energy:      -644.023622  Gnorm:      0.033501  CPU:   14.515
  Cycle:    115 Energy:      -644.025780  Gnorm:      0.033555  CPU:   14.645
  Cycle:    116 Energy:      -644.027503  Gnorm:      0.029009  CPU:   14.775
  Cycle:    117 Energy:      -644.029557  Gnorm:      0.030903  CPU:   14.906
  Cycle:    118 Energy:      -644.031600  Gnorm:      0.029907  CPU:   15.037
  Cycle:    119 Energy:      -644.033198  Gnorm:      0.038927  CPU:   15.167
  Cycle:    120 Energy:      -644.034689  Gnorm:      0.028714  CPU:   15.298
  Cycle:    121 Energy:      -644.036523  Gnorm:      0.028906  CPU:   15.429
  Cycle:    122 Energy:      -644.038307  Gnorm:      0.026804  CPU:   15.559
  Cycle:    123 Energy:      -644.039735  Gnorm:      0.030106  CPU:   15.690
  Cycle:    124 Energy:      -644.041393  Gnorm:      0.028714  CPU:   15.820
  Cycle:    125 Energy:      -644.043307  Gnorm:      0.030253  CPU:   15.982
  Cycle:    126 Energy:      -644.044964  Gnorm:      0.031180  CPU:   16.113
  Cycle:    127 Energy:      -644.047022  Gnorm:      0.028884  CPU:   16.244
  Cycle:    128 Energy:      -644.049168  Gnorm:      0.032788  CPU:   16.406
  Cycle:    129 Energy:      -644.051444  Gnorm:      0.038537  CPU:   16.536
  Cycle:    130 Energy:      -644.053519  Gnorm:      0.031035  CPU:   16.667
  Cycle:    131 Energy:      -644.055347  Gnorm:      0.026177  CPU:   16.798
  Cycle:    132 Energy:      -644.056918  Gnorm:      0.027094  CPU:   16.929
  Cycle:    133 Energy:      -644.058123  Gnorm:      0.024484  CPU:   17.059
  Cycle:    134 Energy:      -644.059409  Gnorm:      0.022136  CPU:   17.190
  Cycle:    135 Energy:      -644.060498  Gnorm:      0.022776  CPU:   17.352
  Cycle:    136 Energy:      -644.061325  Gnorm:      0.020731  CPU:   17.482
  Cycle:    137 Energy:      -644.062355  Gnorm:      0.021254  CPU:   17.613
  Cycle:    138 Energy:      -644.063378  Gnorm:      0.019581  CPU:   17.744
  Cycle:    139 Energy:      -644.064282  Gnorm:      0.034699  CPU:   17.906
  Cycle:    140 Energy:      -644.065130  Gnorm:      0.018783  CPU:   18.037
  Cycle:    141 Energy:      -644.066056  Gnorm:      0.019828  CPU:   18.168
  Cycle:    142 Energy:      -644.066935  Gnorm:      0.018766  CPU:   18.299
  Cycle:    143 Energy:      -644.067603  Gnorm:      0.020216  CPU:   18.430
  Cycle:    144 Energy:      -644.068410  Gnorm:      0.018916  CPU:   18.560
  Cycle:    145 Energy:      -644.069312  Gnorm:      0.019773  CPU:   18.723
  Cycle:    146 Energy:      -644.070089  Gnorm:      0.021659  CPU:   18.853
  Cycle:    147 Energy:      -644.071044  Gnorm:      0.020201  CPU:   18.984
  Cycle:    148 Energy:      -644.072086  Gnorm:      0.022920  CPU:   19.146
  Cycle:    149 Energy:      -644.073138  Gnorm:      0.026887  CPU:   19.278
  Cycle:    150 Energy:      -644.074087  Gnorm:      0.021934  CPU:   19.409
  Cycle:    151 Energy:      -644.074929  Gnorm:      0.019179  CPU:   19.540
  Cycle:    152 Energy:      -644.075569  Gnorm:      0.019166  CPU:   19.671
  Cycle:    153 Energy:      -644.076181  Gnorm:      0.015642  CPU:   19.801
  Cycle:    154 Energy:      -644.076765  Gnorm:      0.015595  CPU:   19.934
  Cycle:    155 Energy:      -644.077232  Gnorm:      0.015828  CPU:   20.065
  Cycle:    156 Energy:      -644.077686  Gnorm:      0.013498  CPU:   20.196
  Cycle:    157 Energy:      -644.078174  Gnorm:      0.014314  CPU:   20.327
  Cycle:    158 Energy:      -644.078646  Gnorm:      0.013629  CPU:   20.458
  Cycle:    159 Energy:      -644.079023  Gnorm:      0.020260  CPU:   20.589
  Cycle:    160 Energy:      -644.079377  Gnorm:      0.013163  CPU:   20.721
  Cycle:    161 Energy:      -644.079797  Gnorm:      0.013313  CPU:   20.852
  Cycle:    162 Energy:      -644.080210  Gnorm:      0.012087  CPU:   20.983
  Cycle:    163 Energy:      -644.080567  Gnorm:      0.013772  CPU:   21.114
  Cycle:    164 Energy:      -644.080899  Gnorm:      0.013295  CPU:   21.245
  Cycle:    165 Energy:      -644.081286  Gnorm:      0.012983  CPU:   21.376
  Cycle:    166 Energy:      -644.081641  Gnorm:      0.015017  CPU:   21.507
  Cycle:    167 Energy:      -644.082035  Gnorm:      0.014140  CPU:   21.638
  Cycle:    168 Energy:      -644.082495  Gnorm:      0.015337  CPU:   21.769
  Cycle:    169 Energy:      -644.082981  Gnorm:      0.017870  CPU:   21.900
  Cycle:    170 Energy:      -644.083422  Gnorm:      0.014414  CPU:   22.031
  Cycle:    171 Energy:      -644.083802  Gnorm:      0.012626  CPU:   22.162
  Cycle:    172 Energy:      -644.084099  Gnorm:      0.012675  CPU:   22.294
  Cycle:    173 Energy:      -644.084346  Gnorm:      0.010578  CPU:   22.425
  Cycle:    174 Energy:      -644.084594  Gnorm:      0.010555  CPU:   22.556
  Cycle:    175 Energy:      -644.084800  Gnorm:      0.010698  CPU:   22.687
  Cycle:    176 Energy:      -644.085009  Gnorm:      0.009164  CPU:   22.819
  ** Hessian has required structure
  Cycle:    177 Energy:      -644.088508  Gnorm:      0.005556  CPU:   23.176
  ** Hessian has required structure
  Cycle:    178 Energy:      -644.090568  Gnorm:      0.003639  CPU:   23.357
  ** Hessian has required structure
  Cycle:    179 Energy:      -644.090953  Gnorm:      0.001698  CPU:   23.507
  ** Hessian has required structure
  Cycle:    180 Energy:      -644.091025  Gnorm:      0.000493  CPU:   23.656
  ** Hessian has required structure


  **** Optimisation achieved ****


  Final enthalpy =    -644.09102911 eV      
  Final Gnorm    =       0.00019786

  Components of enthalpy : 

--------------------------------------------------------------------------------
  Interatomic potentials     =         223.77620591 eV    
  Monopole - monopole (real) =        -509.51436239 eV    
  Monopole - monopole (recip)=        -487.88695291 eV    
  Monopole - monopole (total)=        -997.40131530 eV    
  Pressure*volume            =         129.53408028 eV    
--------------------------------------------------------------------------------
  Total lattice enthalpy     =        -644.09102911 eV    
--------------------------------------------------------------------------------
  Total lattice enthalpy     =          -62144.9385 kJ/(mole unit cells)
--------------------------------------------------------------------------------

  Final fractional coordinates of atoms :

--------------------------------------------------------------------------------
   No.  Atomic        x           y          z          Radius
        Label       (Frac)      (Frac)     (Frac)       (Angs) 
--------------------------------------------------------------------------------
     1  Al    c     0.576760    0.146559    0.811335    0.000000
     2  Al    c     0.366502    0.707452    0.945250    0.000000
     3  Al    c     0.389148    0.934381    0.341868    0.000000
     4  Al    c     0.308710    0.371539    0.752242    0.000000
     5  Al    c     0.910001    0.472048    0.821360    0.000000
     6  Al    c     0.140401    0.183873    0.210663    0.000000
     7  Al    c     0.844732    0.139575    0.486537    0.000000
     8  Al    c     0.069179    0.889478    0.740884    0.000000
     9  Mg    c     0.632017    0.688015    0.547399    0.000000
    10  Mg    c     0.639670    0.412614    0.188130    0.000000
    11  Mg    c     0.061804    0.566363    0.335307    0.000000
    12  Mg    c     0.794361    0.844110    0.079716    0.000000
    13  O     c     0.548540    0.613066    0.158980    0.000000
    14  O     c     0.529072    0.380964    0.708270    0.000000
    15  O     c     0.549481    0.943482    0.125115    0.000000
    16  O     c     0.303545    0.011146    0.596041    0.000000
    17  O     c     0.129261    0.313276    0.453943    0.000000
    18  O     c     0.016995    0.056981    0.894172    0.000000
    19  O     c     0.371701    0.191734    0.119883    0.000000
    20  O     c     0.787442    0.316732    0.573280    0.000000
    21  O     c     0.630230    0.967685    0.650672    0.000000
    22  O     c     0.359673    0.661215    0.599053    0.000000
    23  O     c     0.162373    0.436046    0.940074    0.000000
    24  O     c     0.210164    0.779056    0.067212    0.000000
    25  O     c     0.804166    0.282017    0.097719    0.000000
    26  O     c     0.847185    0.653521    0.932834    0.000000
    27  O     c     0.986610    0.680232    0.549194    0.000000
    28  O     c     0.927970    0.985357    0.396390    0.000000
--------------------------------------------------------------------------------

  Final Cartesian lattice vectors (Angstroms) :

        6.707248   -2.372585   -1.220791
       -0.325969    7.072511    1.085986
       -0.580277    0.763878    4.635578


  Final cell parameters and derivatives :

--------------------------------------------------------------------------------
       a            7.218495 Angstrom     dE/de1(xx)    -0.000406 eV/strain
       b            7.162823 Angstrom     dE/de2(yy)     0.000923 eV/strain
       c            4.733794 Angstrom     dE/de3(zz)    -0.000183 eV/strain
       alpha       71.736994 Degrees      dE/de4(yz)     0.002228 eV/strain
       beta       109.423583 Degrees      dE/de5(xz)    -0.001999 eV/strain
       gamma      113.107878 Degrees      dE/de6(xy)    -0.001534 eV/strain
--------------------------------------------------------------------------------

  Primitive cell volume =           207.538079 Angs**3

  Density of cell =      4.553355 g/cm**3

  Non-primitive cell volume =           207.538079 Angs**3


  Final internal derivatives :

--------------------------------------------------------------------------------
   No.  Atomic          a             b             c           Radius
        Label          (eV)          (eV)          (eV)        (eV/Angs)
--------------------------------------------------------------------------------
      1 Al    c       0.000000      0.000000      0.000000      0.000000
      2 Al    c      -0.003743     -0.000739     -0.000526      0.000000
      3 Al    c      -0.001653      0.001752      0.000585      0.000000
      4 Al    c      -0.001580     -0.002772      0.000081      0.000000
      5 Al    c       0.000790     -0.001490      0.000572      0.000000
      6 Al    c       0.000198     -0.000309      0.000522      0.000000
      7 Al    c       0.000528      0.000987     -0.000285      0.000000
      8 Al    c      -0.001645     -0.002683     -0.002205      0.000000
      9 Mg    c       0.001204      0.000656     -0.000081      0.000000
     10 Mg    c      -0.000824     -0.000363     -0.002001      0.000000
     11 Mg    c       0.001001     -0.003112     -0.001200      0.000000
     12 Mg    c       0.000626      0.001939      0.001642      0.000000
     13 O     c       0.002722     -0.001349     -0.000625      0.000000
     14 O     c      -0.001131      0.001647     -0.000562      0.000000
     15 O     c      -0.000033     -0.003832     -0.000443      0.000000
     16 O     c      -0.000851     -0.000165      0.001482      0.000000
     17 O     c       0.000008     -0.000259     -0.000386      0.000000
     18 O     c       0.000691     -0.001038     -0.000541      0.000000
     19 O     c       0.001926      0.000499      0.000213      0.000000
     20 O     c      -0.002014     -0.002410      0.000378      0.000000
     21 O     c       0.000966     -0.001764     -0.000736      0.000000
     22 O     c       0.000299      0.001024     -0.000124      0.000000
     23 O     c       0.001372      0.003634      0.000259      0.000000
     24 O     c       0.002334     -0.001378     -0.004931      0.000000
     25 O     c      -0.000021      0.001416      0.000504      0.000000
     26 O     c      -0.002335      0.000856      0.002221      0.000000
     27 O     c      -0.002370      0.008788      0.002695      0.000000
     28 O     c      -0.000884      0.001616     -0.000380      0.000000
--------------------------------------------------------------------------------
  Maximum abs         0.003743      0.008788      0.004931      0.000000
--------------------------------------------------------------------------------


  Time to end of optimisation =      23.8062 seconds


  Peak dynamic memory used =       2.03 MB 


  Timing analysis for GULP :

--------------------------------------------------------------------------------
  Task / Subroutine                                          Time (Seconds)
--------------------------------------------------------------------------------
  Calculation of reciprocal space energy and derivatives          0.4834
  Calculation of real space energy and derivatives               23.1765
  Calculation and manipulation of Hessian matrix                  0.0953
  Global summation overhead                                       0.0011
--------------------------------------------------------------------------------
  Total CPU time                                                 23.8062
--------------------------------------------------------------------------------


  Job Finished at 15:58.31 11th June       2024                               

