********************************************************************************
*                       GENERAL UTILITY LATTICE PROGRAM                        *
*                                 Julian Gale                                  *
*                       Curtin Institute for Computation                       *
*                    School of Molecular and Life Sciences                     *
*                    Curtin University, Western Australia                      *
********************************************************************************
* Version = 6.0.0 * Last modified =  12th July 2021                            *
********************************************************************************
*  optimise     - perform optimisation run                                     *
*  conp         - constant pressure calculation                                *
*  nosymmetry   - turn off symmetry after initial structure generation         *
*  conjugate    - use conjugate gradients minimiser                            *
********************************************************************************

  Job Started  at 15:55.36 11th June       2024                               

  Number of CPUs =     1


  Total number of configurations input =      1

********************************************************************************
*  Input for Configuration =   1                                               *
********************************************************************************

  Formula = Al8Mg4O16                                                   

  Number of irreducible atoms/shells =      28


  Total number atoms/shells =      28

  Dimensionality = 3               :  Bulk   



  Cartesian lattice vectors (Angstroms) :

        5.387640    0.023088   -0.210505
        0.028879    4.964124   -0.270192
       -0.747576   -0.516753    7.841016

  Cell parameters (Angstroms/Degrees):

  a =       5.3918    alpha =  96.8866
  b =       4.9716    beta  =  97.6833
  c =       7.8935    gamma =  89.3009

  Initial cell volume =         208.176407 Angs**3

  Temperature of configuration =   0.00     K 

  Pressure of configuration =       100.000 GPa 

  Fractional coordinates of asymmetric unit :

--------------------------------------------------------------------------------
   No.  Atomic       x           y          z         Charge      Occupancy
        Label      (Frac)      (Frac)     (Frac)        (e)         (Frac)  
--------------------------------------------------------------------------------
      1 Al    c    0.874598    0.305121    0.373131     3.00000    1.000000    
      2 Al    c    0.288385 *  0.302501 *  0.747540 *   3.00000    1.000000    
      3 Al    c    0.581491 *  0.303809 *  0.083881 *   3.00000    1.000000    
      4 Al    c    0.105038 *  0.303809 *  0.083881 *   3.00000    1.000000    
      5 Al    c    0.279798 *  0.649539 *  0.576292 *   3.00000    1.000000    
      6 Al    c    0.920497 *  0.868422 *  0.512346 *   3.00000    1.000000    
      7 Al    c    0.124190 *  0.846875 *  0.729718 *   3.00000    1.000000    
      8 Al    c    0.766345 *  0.949590 *  0.682033 *   3.00000    1.000000    
      9 Mg    c    0.401001 *  0.304642 *  0.378560 *   2.00000    1.000000    
     10 Mg    c    0.761981 *  0.302979 *  0.742110 *   2.00000    1.000000    
     11 Mg    c    0.768571 *  0.637490 *  0.829163 *   2.00000    1.000000    
     12 Mg    c    0.759465 *  0.934402 *  0.200250 *   2.00000    1.000000    
     13 O     c    0.109267 *  0.131137 *  0.312204 *  -2.00000    1.000000    
     14 O     c    0.016179 *  0.014686 *  0.902359 *  -2.00000    1.000000    
     15 O     c    0.342150 *  0.208873 *  0.075049 *  -2.00000    1.000000    
     16 O     c    0.827372 *  0.113042 *  0.546060 *  -2.00000    1.000000    
     17 O     c    0.677159 *  0.012182 *  0.218473 *  -2.00000    1.000000    
     18 O     c    0.549517 *  0.135427 *  0.808050 *  -2.00000    1.000000    
     19 O     c    0.820832 *  0.398746 *  0.092715 *  -2.00000    1.000000    
     20 O     c    0.766429 *  0.613471 *  0.354177 *  -2.00000    1.000000    
     21 O     c    0.421457 *  0.607878 *  0.893365 *  -2.00000    1.000000    
     22 O     c    0.275013 *  0.610035 *  0.114111 *  -2.00000    1.000000    
     23 O     c    0.611781 *  0.628364 *  0.162947 *  -2.00000    1.000000    
     24 O     c    0.906646 *  0.895560 *  0.040320 *  -2.00000    1.000000    
     25 O     c    0.146530 *  0.898940 *  0.248176 *  -2.00000    1.000000    
     26 O     c    0.605097 *  0.621737 *  0.633763 *  -2.00000    1.000000    
     27 O     c    0.414396 *  0.611807 *  0.407688 *  -2.00000    1.000000    
     28 O     c    0.289258 *  0.948924 *  0.919539 *  -2.00000    1.000000    
--------------------------------------------------------------------------------



********************************************************************************
*  General input information                                                   *
********************************************************************************

  Species output for all configurations : 

--------------------------------------------------------------------------------
  Species    Type    Atomic    Atomic    Charge       Radii (Angs)     Library
                     Number     Mass       (e)     Cova   Ionic  VDW   Symbol
--------------------------------------------------------------------------------
    Mg       Core       12      24.31   2.000000   1.100  0.000  1.640          
    Al       Core       13      26.98   3.000000   1.350  0.000  2.050          
    O        Core        8      16.00  -2.000000   0.730  0.000  1.360          
--------------------------------------------------------------------------------


  Lattice summation method               =    Ewald          (3-D)
                                         =    Parry          (2-D)
                                         =    Saunders et al (1-D)
  Accuracy factor for lattice sums       =   12.000


  Analytic derivatives to be used

  Time limit = Infinity

  Maximum range for interatomic potentials =    100000.000000 Angstroms

  General interatomic potentials :

--------------------------------------------------------------------------------
Atom  Types   Potential      Parameter       Value         Units   Cutoffs(Ang)
  1     2                                                            Min /  Max 
--------------------------------------------------------------------------------
O    c Mg   c Lennard       Lennard-Jones A  1.5000000    eV*Ang^m  0.000  6.000
                            Lennard-Jones B  0.0000000    eV*Ang^n  
                            Exponent m        12          None
                            Exponent n         6          None
--------------------------------------------------------------------------------
O    c Al   c Lennard       Lennard-Jones A  1.5000000    eV*Ang^m  0.000  6.000
                            Lennard-Jones B  0.0000000    eV*Ang^n  
                            Exponent m        12          None
                            Exponent n         6          None
--------------------------------------------------------------------------------
O    c O    c Lennard       Lennard-Jones A  1.5000000    eV*Ang^m  0.000  6.000
                            Lennard-Jones B  0.0000000    eV*Ang^n  
                            Exponent m        12          None
                            Exponent n         6          None
--------------------------------------------------------------------------------
Mg   c Mg   c Lennard       Lennard-Jones A  1.5000000    eV*Ang^m  0.000  6.000
                            Lennard-Jones B  0.0000000    eV*Ang^n  
                            Exponent m        12          None
                            Exponent n         6          None
--------------------------------------------------------------------------------
Mg   c Al   c Lennard       Lennard-Jones A  1.5000000    eV*Ang^m  0.000  6.000
                            Lennard-Jones B  0.0000000    eV*Ang^n  
                            Exponent m        12          None
                            Exponent n         6          None
--------------------------------------------------------------------------------
Al   c Al   c Lennard       Lennard-Jones A  1.5000000    eV*Ang^m  0.000  6.000
                            Lennard-Jones B  0.0000000    eV*Ang^n  
                            Exponent m        12          None
                            Exponent n         6          None
--------------------------------------------------------------------------------
O    c Mg   c Buckingham    Buckingham A     1428.5000    eV        0.000  7.000
                            Buckingham rho  0.29450000    Ang       
                            Buckingham C     0.0000000    eV*Ang^6  
--------------------------------------------------------------------------------
O    c Al   c Buckingham    Buckingham A     1114.9000    eV        0.000  7.000
                            Buckingham rho  0.31180000    Ang       
                            Buckingham C     0.0000000    eV*Ang^6  
--------------------------------------------------------------------------------
O    c O    c Buckingham    Buckingham A     2023.8000    eV        0.000  7.000
                            Buckingham rho  0.26740000    Ang       
                            Buckingham C     0.0000000    eV*Ang^6  
--------------------------------------------------------------------------------

********************************************************************************
*  Output for configuration   1                                                *
********************************************************************************


  Components of enthalpy : 

--------------------------------------------------------------------------------
  Interatomic potentials     =        1083.21936896 eV    
  Monopole - monopole (real) =        -245.23902992 eV    
  Monopole - monopole (recip)=        -345.09045943 eV    
  Monopole - monopole (total)=        -590.32948935 eV    
  Pressure*volume            =         129.93249043 eV    
--------------------------------------------------------------------------------
  Total lattice enthalpy     =         622.82237004 eV    
--------------------------------------------------------------------------------
  Total lattice enthalpy     =           60092.8380 kJ/(mole unit cells)
--------------------------------------------------------------------------------


  Number of variables =       87

  Maximum number of calculations  =           850
  Maximum Hessian update interval =            10
  Maximum step size               =   1.000000000
  Maximum parameter tolerance     =   0.000010000
  Maximum function  tolerance     =   0.000010000
  Maximum gradient  tolerance     =   0.001000000
  Maximum gradient  component     =   0.010000000

  Cell parameters to be optimised using strains

  Conjugate gradient optimiser to be used

  Lower half triangular hessian to be used

  Minimiser to switch to RFO
  When gradient norm is less than     0.010000

  Start of bulk optimisation :

  Cycle:      0 Energy:       622.822370  Gnorm:   1130.889257  CPU:    0.050
  Cycle:      1 Energy:      -135.709492  Gnorm:     26.796015  CPU:    0.160
  Cycle:      2 Energy:      -439.091505  Gnorm:     21.270979  CPU:    0.269
  Cycle:      3 Energy:      -478.706719  Gnorm:      7.712047  CPU:    0.360
  Cycle:      4 Energy:      -540.306309  Gnorm:      4.955475  CPU:    0.451
  Cycle:      5 Energy:      -565.045108  Gnorm:      3.697609  CPU:    0.542
  Cycle:      6 Energy:      -577.475681  Gnorm:      2.590380  CPU:    0.634
  Cycle:      7 Energy:      -587.683450  Gnorm:      2.565115  CPU:    0.725
  Cycle:      8 Energy:      -597.919168  Gnorm:      1.995889  CPU:    0.817
  Cycle:      9 Energy:      -604.473282  Gnorm:      1.622612  CPU:    0.910
  Cycle:     10 Energy:      -607.651304  Gnorm:      1.164623  CPU:    0.985
  Cycle:     11 Energy:      -611.789629  Gnorm:      1.419810  CPU:    1.077
  Cycle:     12 Energy:      -616.148611  Gnorm:      1.391830  CPU:    1.171
  Cycle:     13 Energy:      -619.633644  Gnorm:      1.572136  CPU:    1.248
  Cycle:     14 Energy:      -622.593093  Gnorm:      1.089522  CPU:    1.325
  Cycle:     15 Energy:      -624.883127  Gnorm:      0.919707  CPU:    1.421
  Cycle:     16 Energy:      -626.446684  Gnorm:      0.833191  CPU:    1.499
  Cycle:     17 Energy:      -627.602494  Gnorm:      0.720004  CPU:    1.595
  Cycle:     18 Energy:      -628.571954  Gnorm:      0.725087  CPU:    1.693
  Cycle:     19 Energy:      -629.551134  Gnorm:      0.671851  CPU:    1.790
  Cycle:     20 Energy:      -630.106163  Gnorm:      0.521892  CPU:    1.870
  Cycle:     21 Energy:      -630.745960  Gnorm:      0.509829  CPU:    1.967
  Cycle:     22 Energy:      -631.536615  Gnorm:      0.550591  CPU:    2.064
  Cycle:     23 Energy:      -632.163500  Gnorm:      0.511322  CPU:    2.143
  Cycle:     24 Energy:      -632.570971  Gnorm:      0.387693  CPU:    2.222
  Cycle:     25 Energy:      -632.839972  Gnorm:      0.366700  CPU:    2.318
  Cycle:     26 Energy:      -633.074684  Gnorm:      0.322723  CPU:    2.415
  Cycle:     27 Energy:      -633.360504  Gnorm:      0.382352  CPU:    2.512
  Cycle:     28 Energy:      -633.842866  Gnorm:      0.525151  CPU:    2.614
  Cycle:     29 Energy:      -634.341624  Gnorm:      0.499766  CPU:    2.692
  Cycle:     30 Energy:      -634.808590  Gnorm:      0.527210  CPU:    2.775
  Cycle:     31 Energy:      -635.243176  Gnorm:      0.424174  CPU:    2.854
  Cycle:     32 Energy:      -635.694378  Gnorm:      0.443130  CPU:    2.955
  Cycle:     33 Energy:      -636.156765  Gnorm:      0.531804  CPU:    3.052
  Cycle:     34 Energy:      -636.714297  Gnorm:      0.588504  CPU:    3.135
  Cycle:     35 Energy:      -637.365485  Gnorm:      0.510735  CPU:    3.232
  Cycle:     36 Energy:      -638.041183  Gnorm:      0.519349  CPU:    3.333
  Cycle:     37 Energy:      -638.456035  Gnorm:      0.427479  CPU:    3.412
  Cycle:     38 Energy:      -638.771486  Gnorm:      0.391174  CPU:    3.509
  Cycle:     39 Energy:      -638.993736  Gnorm:      0.347319  CPU:    3.588
  Cycle:     40 Energy:      -639.116910  Gnorm:      0.266629  CPU:    3.667
  Cycle:     41 Energy:      -639.265575  Gnorm:      0.274864  CPU:    3.764
  Cycle:     42 Energy:      -639.391747  Gnorm:      0.247234  CPU:    3.843
  Cycle:     43 Energy:      -639.534354  Gnorm:      0.263250  CPU:    3.940
  Cycle:     44 Energy:      -639.770735  Gnorm:      0.305504  CPU:    4.037
  Cycle:     45 Energy:      -639.931431  Gnorm:      0.333087  CPU:    4.115
  Cycle:     46 Energy:      -640.131725  Gnorm:      0.261766  CPU:    4.211
  Cycle:     47 Energy:      -640.313469  Gnorm:      0.215756  CPU:    4.306
  Cycle:     48 Energy:      -640.408020  Gnorm:      0.229956  CPU:    4.384
  Cycle:     49 Energy:      -640.488931  Gnorm:      0.199871  CPU:    4.462
  Cycle:     50 Energy:      -640.531802  Gnorm:      0.168221  CPU:    4.540
  Cycle:     51 Energy:      -640.593145  Gnorm:      0.168720  CPU:    4.635
  Cycle:     52 Energy:      -640.663980  Gnorm:      0.175835  CPU:    4.731
  Cycle:     53 Energy:      -640.704302  Gnorm:      0.155769  CPU:    4.808
  Cycle:     54 Energy:      -640.748830  Gnorm:      0.135734  CPU:    4.904
  Cycle:     55 Energy:      -640.796345  Gnorm:      0.133147  CPU:    4.999
  Cycle:     56 Energy:      -640.846869  Gnorm:      0.149357  CPU:    5.095
  Cycle:     57 Energy:      -640.897363  Gnorm:      0.140055  CPU:    5.173
  Cycle:     58 Energy:      -640.935487  Gnorm:      0.125411  CPU:    5.250
  Cycle:     59 Energy:      -640.962476  Gnorm:      0.138910  CPU:    5.328
  Cycle:     60 Energy:      -640.977320  Gnorm:      0.091721  CPU:    5.406
  Cycle:     61 Energy:      -640.997391  Gnorm:      0.092011  CPU:    5.501
  Cycle:     62 Energy:      -641.014305  Gnorm:      0.090579  CPU:    5.579
  Cycle:     63 Energy:      -641.030587  Gnorm:      0.082574  CPU:    5.674
  Cycle:     64 Energy:      -641.042397  Gnorm:      0.084511  CPU:    5.752
  Cycle:     65 Energy:      -641.056667  Gnorm:      0.069064  CPU:    5.847
  Cycle:     66 Energy:      -641.069120  Gnorm:      0.071910  CPU:    5.942
  Cycle:     67 Energy:      -641.081774  Gnorm:      0.074732  CPU:    6.037
  Cycle:     68 Energy:      -641.090361  Gnorm:      0.073039  CPU:    6.115
  Cycle:     69 Energy:      -641.098589  Gnorm:      0.067237  CPU:    6.210
  Cycle:     70 Energy:      -641.103936  Gnorm:      0.056530  CPU:    6.287
  Cycle:     71 Energy:      -641.109224  Gnorm:      0.055680  CPU:    6.366
  Cycle:     72 Energy:      -641.115159  Gnorm:      0.051441  CPU:    6.461
  Cycle:     73 Energy:      -641.120832  Gnorm:      0.046514  CPU:    6.538
  Cycle:     74 Energy:      -641.126592  Gnorm:      0.048453  CPU:    6.616
  Cycle:     75 Energy:      -641.131445  Gnorm:      0.051650  CPU:    6.693
  Cycle:     76 Energy:      -641.136252  Gnorm:      0.052515  CPU:    6.770
  Cycle:     77 Energy:      -641.142957  Gnorm:      0.051862  CPU:    6.865
  Cycle:     78 Energy:      -641.149920  Gnorm:      0.048671  CPU:    6.961
  Cycle:     79 Energy:      -641.162244  Gnorm:      0.095939  CPU:    7.056
  Cycle:     80 Energy:      -641.169869  Gnorm:      0.049221  CPU:    7.133
  Cycle:     81 Energy:      -641.173321  Gnorm:      0.046824  CPU:    7.210
  Cycle:     82 Energy:      -641.177449  Gnorm:      0.042288  CPU:    7.288
  Cycle:     83 Energy:      -641.182093  Gnorm:      0.033761  CPU:    7.383
  Cycle:     84 Energy:      -641.185882  Gnorm:      0.037212  CPU:    7.460
  Cycle:     85 Energy:      -641.189029  Gnorm:      0.038396  CPU:    7.537
  Cycle:     86 Energy:      -641.192243  Gnorm:      0.044503  CPU:    7.615
  Cycle:     87 Energy:      -641.195468  Gnorm:      0.039925  CPU:    7.691
  Cycle:     88 Energy:      -641.198863  Gnorm:      0.038971  CPU:    7.787
  Cycle:     89 Energy:      -641.201510  Gnorm:      0.044412  CPU:    7.864
  Cycle:     90 Energy:      -641.203438  Gnorm:      0.035821  CPU:    7.941
  Cycle:     91 Energy:      -641.206330  Gnorm:      0.036233  CPU:    8.018
  Cycle:     92 Energy:      -641.209190  Gnorm:      0.038243  CPU:    8.095
  Cycle:     93 Energy:      -641.211656  Gnorm:      0.037074  CPU:    8.172
  Cycle:     94 Energy:      -641.214101  Gnorm:      0.033702  CPU:    8.249
  Cycle:     95 Energy:      -641.217310  Gnorm:      0.033042  CPU:    8.344
  Cycle:     96 Energy:      -641.220303  Gnorm:      0.040187  CPU:    8.421
  Cycle:     97 Energy:      -641.224546  Gnorm:      0.038362  CPU:    8.499
  Cycle:     98 Energy:      -641.228561  Gnorm:      0.039892  CPU:    8.593
  Cycle:     99 Energy:      -641.243682  Gnorm:      0.126186  CPU:    8.706
  Cycle:    100 Energy:      -641.254330  Gnorm:      0.054626  CPU:    8.801
  Cycle:    101 Energy:      -641.258599  Gnorm:      0.041987  CPU:    8.878
  Cycle:    102 Energy:      -641.262278  Gnorm:      0.042137  CPU:    8.973
  Cycle:    103 Energy:      -641.266632  Gnorm:      0.043945  CPU:    9.049
  Cycle:    104 Energy:      -641.270103  Gnorm:      0.048242  CPU:    9.126
  Cycle:    105 Energy:      -641.274862  Gnorm:      0.038530  CPU:    9.221
  Cycle:    106 Energy:      -641.280337  Gnorm:      0.048462  CPU:    9.316
  Cycle:    107 Energy:      -641.285821  Gnorm:      0.052316  CPU:    9.393
  Cycle:    108 Energy:      -641.293029  Gnorm:      0.056175  CPU:    9.487
  Cycle:    109 Energy:      -641.299994  Gnorm:      0.075889  CPU:    9.564
  Cycle:    110 Energy:      -641.304602  Gnorm:      0.053783  CPU:    9.641
  Cycle:    111 Energy:      -641.313668  Gnorm:      0.055579  CPU:    9.718
  Cycle:    112 Energy:      -641.323303  Gnorm:      0.070340  CPU:    9.812
  Cycle:    113 Energy:      -641.333556  Gnorm:      0.062959  CPU:    9.889
  Cycle:    114 Energy:      -641.347667  Gnorm:      0.078592  CPU:    9.984
  Cycle:    115 Energy:      -641.362174  Gnorm:      0.101881  CPU:   10.061
  Cycle:    116 Energy:      -641.385646  Gnorm:      0.131313  CPU:   10.155
  Cycle:    117 Energy:      -641.447005  Gnorm:      0.229105  CPU:   10.250
  Cycle:    118 Energy:      -641.632137  Gnorm:      0.366699  CPU:   10.345
  Cycle:    119 Energy:      -642.047946  Gnorm:      0.442054  CPU:   10.416
  Cycle:    120 Energy:      -642.270820  Gnorm:      0.429234  CPU:   10.493
  Cycle:    121 Energy:      -642.673244  Gnorm:      0.305699  CPU:   10.589
  Cycle:    122 Energy:      -642.918537  Gnorm:      0.346696  CPU:   10.666
  Cycle:    123 Energy:      -643.146650  Gnorm:      0.360453  CPU:   10.720
  Cycle:    124 Energy:      -643.484496  Gnorm:      0.401647  CPU:   10.786
  Cycle:    125 Energy:      -643.797288  Gnorm:      0.413760  CPU:   10.840
  Cycle:    126 Energy:      -644.123112  Gnorm:      0.328229  CPU:   10.907
  Cycle:    127 Energy:      -644.304802  Gnorm:      0.361101  CPU:   10.961
  Cycle:    128 Energy:      -644.515598  Gnorm:      0.287671  CPU:   11.027
  Cycle:    129 Energy:      -644.714236  Gnorm:      0.306550  CPU:   11.094
  Cycle:    130 Energy:      -644.812382  Gnorm:      0.244781  CPU:   11.148
  Cycle:    131 Energy:      -644.954391  Gnorm:      0.306191  CPU:   11.214
  Cycle:    132 Energy:      -645.131001  Gnorm:      0.258297  CPU:   11.280
  Cycle:    133 Energy:      -645.363097  Gnorm:      0.321162  CPU:   11.346
  Cycle:    134 Energy:      -645.604800  Gnorm:      0.368873  CPU:   11.400
  Cycle:    135 Energy:      -645.846908  Gnorm:      0.331309  CPU:   11.454
  Cycle:    136 Energy:      -646.026296  Gnorm:      0.276307  CPU:   11.508
  Cycle:    137 Energy:      -646.143174  Gnorm:      0.258131  CPU:   11.573
  Cycle:    138 Energy:      -646.276868  Gnorm:      0.281289  CPU:   11.639
  Cycle:    139 Energy:      -646.454327  Gnorm:      0.249381  CPU:   11.705
  Cycle:    140 Energy:      -646.523413  Gnorm:      0.178394  CPU:   11.758
  Cycle:    141 Energy:      -646.576087  Gnorm:      0.159987  CPU:   11.824
  Cycle:    142 Energy:      -646.626612  Gnorm:      0.170251  CPU:   11.890
  Cycle:    143 Energy:      -646.685056  Gnorm:      0.138002  CPU:   11.956
  Cycle:    144 Energy:      -646.715449  Gnorm:      0.123171  CPU:   12.010
  Cycle:    145 Energy:      -646.749902  Gnorm:      0.099805  CPU:   12.075
  Cycle:    146 Energy:      -646.771106  Gnorm:      0.085671  CPU:   12.141
  Cycle:    147 Energy:      -646.792066  Gnorm:      0.095992  CPU:   12.207
  Cycle:    148 Energy:      -646.812784  Gnorm:      0.121876  CPU:   12.261
  Cycle:    149 Energy:      -646.837736  Gnorm:      0.115365  CPU:   12.314
  Cycle:    150 Energy:      -646.853367  Gnorm:      0.088817  CPU:   12.368
  Cycle:    151 Energy:      -646.865025  Gnorm:      0.076747  CPU:   12.422
  Cycle:    152 Energy:      -646.876633  Gnorm:      0.061448  CPU:   12.476
  Cycle:    153 Energy:      -646.888543  Gnorm:      0.071070  CPU:   12.529
  Cycle:    154 Energy:      -646.901544  Gnorm:      0.065668  CPU:   12.583
  Cycle:    155 Energy:      -646.912682  Gnorm:      0.069225  CPU:   12.649
  Cycle:    156 Energy:      -646.926457  Gnorm:      0.069586  CPU:   12.714
  Cycle:    157 Energy:      -646.939794  Gnorm:      0.081027  CPU:   12.829
  Cycle:    158 Energy:      -646.950651  Gnorm:      0.092552  CPU:   12.941
  Cycle:    159 Energy:      -646.992074  Gnorm:      0.167173  CPU:   13.079
  Cycle:    160 Energy:      -647.017127  Gnorm:      0.101931  CPU:   13.218
  Cycle:    161 Energy:      -647.032130  Gnorm:      0.077321  CPU:   13.330
  Cycle:    162 Energy:      -647.047257  Gnorm:      0.092400  CPU:   13.442
  Cycle:    163 Energy:      -647.061533  Gnorm:      0.086542  CPU:   13.554
  Cycle:    164 Energy:      -647.086168  Gnorm:      0.095474  CPU:   13.693
  Cycle:    165 Energy:      -647.119181  Gnorm:      0.136660  CPU:   13.832
  Cycle:    166 Energy:      -647.161397  Gnorm:      0.176758  CPU:   13.926
  Cycle:    167 Energy:      -647.221124  Gnorm:      0.202115  CPU:   14.003
  Cycle:    168 Energy:      -647.321371  Gnorm:      0.241392  CPU:   14.144
  Cycle:    169 Energy:      -647.429586  Gnorm:      0.242775  CPU:   14.258
  Cycle:    170 Energy:      -647.546050  Gnorm:      0.264837  CPU:   14.400
  Cycle:    171 Energy:      -647.653928  Gnorm:      0.204357  CPU:   14.514
  Cycle:    172 Energy:      -647.739362  Gnorm:      0.206670  CPU:   14.655
  Cycle:    173 Energy:      -647.804580  Gnorm:      0.178077  CPU:   14.769
  Cycle:    174 Energy:      -647.852541  Gnorm:      0.124149  CPU:   14.909
  Cycle:    175 Energy:      -647.890769  Gnorm:      0.105037  CPU:   15.050
  Cycle:    176 Energy:      -647.918810  Gnorm:      0.093577  CPU:   15.191
  Cycle:    177 Energy:      -647.934594  Gnorm:      0.083407  CPU:   15.305
  Cycle:    178 Energy:      -647.950139  Gnorm:      0.084499  CPU:   15.445
  Cycle:    179 Energy:      -647.964691  Gnorm:      0.078736  CPU:   15.587
  Cycle:    180 Energy:      -647.970422  Gnorm:      0.052886  CPU:   15.701
  Cycle:    181 Energy:      -647.976540  Gnorm:      0.056926  CPU:   15.816
  Cycle:    182 Energy:      -647.981691  Gnorm:      0.046920  CPU:   15.930
  Cycle:    183 Energy:      -647.986911  Gnorm:      0.050804  CPU:   16.045
  Cycle:    184 Energy:      -647.992107  Gnorm:      0.046672  CPU:   16.159
  Cycle:    185 Energy:      -647.996195  Gnorm:      0.042325  CPU:   16.273
  Cycle:    186 Energy:      -648.001776  Gnorm:      0.042268  CPU:   16.415
  Cycle:    187 Energy:      -648.006646  Gnorm:      0.040444  CPU:   16.529
  Cycle:    188 Energy:      -648.012518  Gnorm:      0.037628  CPU:   16.671
  Cycle:    189 Energy:      -648.017264  Gnorm:      0.062388  CPU:   16.813
  Cycle:    190 Energy:      -648.019848  Gnorm:      0.031015  CPU:   16.928
  Cycle:    191 Energy:      -648.023090  Gnorm:      0.032546  CPU:   17.042
  Cycle:    192 Energy:      -648.025283  Gnorm:      0.034747  CPU:   17.157
  Cycle:    193 Energy:      -648.027554  Gnorm:      0.033934  CPU:   17.271
  Cycle:    194 Energy:      -648.031062  Gnorm:      0.029780  CPU:   17.413
  Cycle:    195 Energy:      -648.035010  Gnorm:      0.037168  CPU:   17.554
  Cycle:    196 Energy:      -648.038418  Gnorm:      0.040322  CPU:   17.669
  Cycle:    197 Energy:      -648.042975  Gnorm:      0.043980  CPU:   17.783
  Cycle:    198 Energy:      -648.048481  Gnorm:      0.052507  CPU:   17.925
  Cycle:    199 Energy:      -648.054653  Gnorm:      0.078081  CPU:   18.012
  Cycle:    200 Energy:      -648.059519  Gnorm:      0.049958  CPU:   18.089
  Cycle:    201 Energy:      -648.065375  Gnorm:      0.045336  CPU:   18.166
  Cycle:    202 Energy:      -648.069328  Gnorm:      0.041665  CPU:   18.243
  Cycle:    203 Energy:      -648.073332  Gnorm:      0.042835  CPU:   18.320
  Cycle:    204 Energy:      -648.077917  Gnorm:      0.045203  CPU:   18.415
  Cycle:    205 Energy:      -648.081543  Gnorm:      0.044043  CPU:   18.492
  Cycle:    206 Energy:      -648.087805  Gnorm:      0.042655  CPU:   18.588
  Cycle:    207 Energy:      -648.094282  Gnorm:      0.060408  CPU:   18.683
  Cycle:    208 Energy:      -648.099357  Gnorm:      0.058492  CPU:   18.760
  Cycle:    209 Energy:      -648.107768  Gnorm:      0.065476  CPU:   18.855
  Cycle:    210 Energy:      -648.111842  Gnorm:      0.050996  CPU:   18.933
  Cycle:    211 Energy:      -648.118227  Gnorm:      0.056478  CPU:   19.010
  Cycle:    212 Energy:      -648.127285  Gnorm:      0.049404  CPU:   19.087
  Cycle:    213 Energy:      -648.133709  Gnorm:      0.058678  CPU:   19.182
  Cycle:    214 Energy:      -648.141054  Gnorm:      0.058425  CPU:   19.260
  Cycle:    215 Energy:      -648.148767  Gnorm:      0.063701  CPU:   19.337
  Cycle:    216 Energy:      -648.159444  Gnorm:      0.066379  CPU:   19.432
  Cycle:    217 Energy:      -648.170700  Gnorm:      0.075096  CPU:   19.527
  Cycle:    218 Energy:      -648.188362  Gnorm:      0.090929  CPU:   19.622
  Cycle:    219 Energy:      -648.202922  Gnorm:      0.111706  CPU:   19.699
  Cycle:    220 Energy:      -648.214086  Gnorm:      0.083400  CPU:   19.776
  Cycle:    221 Energy:      -648.232018  Gnorm:      0.079468  CPU:   19.853
  Cycle:    222 Energy:      -648.244427  Gnorm:      0.068610  CPU:   19.930
  Cycle:    223 Energy:      -648.257427  Gnorm:      0.067177  CPU:   20.025
  Cycle:    224 Energy:      -648.267678  Gnorm:      0.068271  CPU:   20.102
  Cycle:    225 Energy:      -648.277090  Gnorm:      0.067345  CPU:   20.179
  Cycle:    226 Energy:      -648.285209  Gnorm:      0.063070  CPU:   20.256
  Cycle:    227 Energy:      -648.295400  Gnorm:      0.067598  CPU:   20.351
  Cycle:    228 Energy:      -648.303104  Gnorm:      0.068943  CPU:   20.428
  Cycle:    229 Energy:      -648.311445  Gnorm:      0.063004  CPU:   20.523
  Cycle:    230 Energy:      -648.318158  Gnorm:      0.059818  CPU:   20.601
  Cycle:    231 Energy:      -648.324602  Gnorm:      0.063555  CPU:   20.696
  Cycle:    232 Energy:      -648.332544  Gnorm:      0.054625  CPU:   20.773
  Cycle:    233 Energy:      -648.339158  Gnorm:      0.060996  CPU:   20.850
  Cycle:    234 Energy:      -648.346344  Gnorm:      0.059579  CPU:   20.927
  Cycle:    235 Energy:      -648.354280  Gnorm:      0.060424  CPU:   21.022
  Cycle:    236 Energy:      -648.366063  Gnorm:      0.068875  CPU:   21.117
  Cycle:    237 Energy:      -648.378948  Gnorm:      0.076986  CPU:   21.195
  Cycle:    238 Energy:      -648.394199  Gnorm:      0.063032  CPU:   21.290
  Cycle:    239 Energy:      -648.411321  Gnorm:      0.109584  CPU:   21.385
  Cycle:    240 Energy:      -648.421866  Gnorm:      0.071158  CPU:   21.480
  Cycle:    241 Energy:      -648.431289  Gnorm:      0.068755  CPU:   21.575
  Cycle:    242 Energy:      -648.447513  Gnorm:      0.078286  CPU:   21.671
  Cycle:    243 Energy:      -648.457765  Gnorm:      0.077626  CPU:   21.750
  Cycle:    244 Energy:      -648.470125  Gnorm:      0.062535  CPU:   21.846
  Cycle:    245 Energy:      -648.480588  Gnorm:      0.067328  CPU:   21.941
  Cycle:    246 Energy:      -648.495899  Gnorm:      0.075889  CPU:   22.037
  Cycle:    247 Energy:      -648.510033  Gnorm:      0.098480  CPU:   22.115
  Cycle:    248 Energy:      -648.529744  Gnorm:      0.111598  CPU:   22.211
  Cycle:    249 Energy:      -648.552204  Gnorm:      0.107514  CPU:   22.289
  Cycle:    250 Energy:      -648.564895  Gnorm:      0.089397  CPU:   22.368
  Cycle:    251 Energy:      -648.586511  Gnorm:      0.107739  CPU:   22.464
  Cycle:    252 Energy:      -648.601381  Gnorm:      0.071791  CPU:   22.542
  Cycle:    253 Energy:      -648.617921  Gnorm:      0.073502  CPU:   22.638
  Cycle:    254 Energy:      -648.629748  Gnorm:      0.069022  CPU:   22.716
  Cycle:    255 Energy:      -648.641241  Gnorm:      0.086755  CPU:   22.813
  Cycle:    256 Energy:      -648.653627  Gnorm:      0.087921  CPU:   22.891
  Cycle:    257 Energy:      -648.672617  Gnorm:      0.071624  CPU:   22.988
  Cycle:    258 Energy:      -648.683902  Gnorm:      0.077937  CPU:   23.067
  Cycle:    259 Energy:      -648.695129  Gnorm:      0.089638  CPU:   23.145
  Cycle:    260 Energy:      -648.702970  Gnorm:      0.071154  CPU:   23.224
  Cycle:    261 Energy:      -648.713175  Gnorm:      0.064368  CPU:   23.321
  Cycle:    262 Energy:      -648.726020  Gnorm:      0.070009  CPU:   23.418
  Cycle:    263 Energy:      -648.737636  Gnorm:      0.069293  CPU:   23.498
  Cycle:    264 Energy:      -648.745646  Gnorm:      0.057872  CPU:   23.578
  Cycle:    265 Energy:      -648.751663  Gnorm:      0.056780  CPU:   23.675
  Cycle:    266 Energy:      -648.758953  Gnorm:      0.054454  CPU:   23.772
  Cycle:    267 Energy:      -648.764731  Gnorm:      0.062681  CPU:   23.851
  Cycle:    268 Energy:      -648.772362  Gnorm:      0.058414  CPU:   23.949
  Cycle:    269 Energy:      -648.778332  Gnorm:      0.060802  CPU:   24.028
  Cycle:    270 Energy:      -648.782263  Gnorm:      0.045731  CPU:   24.107
  Cycle:    271 Energy:      -648.787727  Gnorm:      0.053582  CPU:   24.187
  Cycle:    272 Energy:      -648.791746  Gnorm:      0.044710  CPU:   24.266
  Cycle:    273 Energy:      -648.795814  Gnorm:      0.041102  CPU:   24.345
  Cycle:    274 Energy:      -648.799270  Gnorm:      0.043801  CPU:   24.442
  Cycle:    275 Energy:      -648.803345  Gnorm:      0.045079  CPU:   24.522
  Cycle:    276 Energy:      -648.807155  Gnorm:      0.042012  CPU:   24.601
  Cycle:    277 Energy:      -648.811466  Gnorm:      0.040366  CPU:   24.699
  Cycle:    278 Energy:      -648.814638  Gnorm:      0.040161  CPU:   24.778
  Cycle:    279 Energy:      -648.816837  Gnorm:      0.039947  CPU:   24.858
  Cycle:    280 Energy:      -648.818741  Gnorm:      0.036181  CPU:   24.938
  Cycle:    281 Energy:      -648.821108  Gnorm:      0.034162  CPU:   25.017
  Cycle:    282 Energy:      -648.824048  Gnorm:      0.035685  CPU:   25.097
  Cycle:    283 Energy:      -648.826738  Gnorm:      0.036037  CPU:   25.177
  Cycle:    284 Energy:      -648.829209  Gnorm:      0.032356  CPU:   25.275
  Cycle:    285 Energy:      -648.831073  Gnorm:      0.028917  CPU:   25.355
  Cycle:    286 Energy:      -648.832783  Gnorm:      0.027821  CPU:   25.453
  Cycle:    287 Energy:      -648.834933  Gnorm:      0.035862  CPU:   25.551
  Cycle:    288 Energy:      -648.837154  Gnorm:      0.028048  CPU:   25.631
  Cycle:    289 Energy:      -648.838979  Gnorm:      0.047154  CPU:   25.711
  Cycle:    290 Energy:      -648.840461  Gnorm:      0.023822  CPU:   25.791
  Cycle:    291 Energy:      -648.842307  Gnorm:      0.031399  CPU:   25.870
  Cycle:    292 Energy:      -648.843838  Gnorm:      0.023525  CPU:   25.950
  Cycle:    293 Energy:      -648.844998  Gnorm:      0.024685  CPU:   26.030
  Cycle:    294 Energy:      -648.846353  Gnorm:      0.026774  CPU:   26.110
  Cycle:    295 Energy:      -648.847999  Gnorm:      0.029385  CPU:   26.209
  Cycle:    296 Energy:      -648.849552  Gnorm:      0.027180  CPU:   26.289
  Cycle:    297 Energy:      -648.851097  Gnorm:      0.026924  CPU:   26.368
  Cycle:    298 Energy:      -648.852317  Gnorm:      0.027468  CPU:   26.448
  Cycle:    299 Energy:      -648.853713  Gnorm:      0.028880  CPU:   26.547
  Cycle:    300 Energy:      -648.854904  Gnorm:      0.024212  CPU:   26.627
  Cycle:    301 Energy:      -648.855810  Gnorm:      0.022213  CPU:   26.707
  Cycle:    302 Energy:      -648.856853  Gnorm:      0.025651  CPU:   26.787
  Cycle:    303 Energy:      -648.858273  Gnorm:      0.026867  CPU:   26.867
  Cycle:    304 Energy:      -648.859808  Gnorm:      0.024005  CPU:   26.948
  Cycle:    305 Energy:      -648.860886  Gnorm:      0.020201  CPU:   27.028
  Cycle:    306 Energy:      -648.861551  Gnorm:      0.019050  CPU:   27.108
  Cycle:    307 Energy:      -648.862794  Gnorm:      0.029554  CPU:   27.207
  Cycle:    308 Energy:      -648.864705  Gnorm:      0.022000  CPU:   27.306
  Cycle:    309 Energy:      -648.867934  Gnorm:      0.046752  CPU:   27.405
  Cycle:    310 Energy:      -648.869802  Gnorm:      0.020672  CPU:   27.486
  Cycle:    311 Energy:      -648.870344  Gnorm:      0.018842  CPU:   27.566
  Cycle:    312 Energy:      -648.871226  Gnorm:      0.022304  CPU:   27.647
  Cycle:    313 Energy:      -648.872419  Gnorm:      0.022029  CPU:   27.727
  Cycle:    314 Energy:      -648.873246  Gnorm:      0.018813  CPU:   27.808
  Cycle:    315 Energy:      -648.874344  Gnorm:      0.023167  CPU:   27.888
  Cycle:    316 Energy:      -648.875509  Gnorm:      0.023670  CPU:   27.968
  Cycle:    317 Energy:      -648.876623  Gnorm:      0.024260  CPU:   28.048
  Cycle:    318 Energy:      -648.877682  Gnorm:      0.023009  CPU:   28.128
  Cycle:    319 Energy:      -648.879334  Gnorm:      0.030142  CPU:   28.227
  Cycle:    320 Energy:      -648.880287  Gnorm:      0.025258  CPU:   28.307
  Cycle:    321 Energy:      -648.881436  Gnorm:      0.021275  CPU:   28.387
  Cycle:    322 Energy:      -648.882543  Gnorm:      0.022093  CPU:   28.468
  Cycle:    323 Energy:      -648.883627  Gnorm:      0.025167  CPU:   28.548
  Cycle:    324 Energy:      -648.884639  Gnorm:      0.019377  CPU:   28.628
  Cycle:    325 Energy:      -648.885484  Gnorm:      0.018971  CPU:   28.727
  Cycle:    326 Energy:      -648.886441  Gnorm:      0.021322  CPU:   28.807
  Cycle:    327 Energy:      -648.887392  Gnorm:      0.019531  CPU:   28.888
  Cycle:    328 Energy:      -648.888136  Gnorm:      0.019803  CPU:   28.987
  Cycle:    329 Energy:      -648.889529  Gnorm:      0.035215  CPU:   29.067
  Cycle:    330 Energy:      -648.890494  Gnorm:      0.020846  CPU:   29.148
  Cycle:    331 Energy:      -648.891273  Gnorm:      0.019599  CPU:   29.228
  Cycle:    332 Energy:      -648.892300  Gnorm:      0.019277  CPU:   29.309
  Cycle:    333 Energy:      -648.893162  Gnorm:      0.019012  CPU:   29.389
  Cycle:    334 Energy:      -648.894067  Gnorm:      0.022178  CPU:   29.469
  Cycle:    335 Energy:      -648.894906  Gnorm:      0.019952  CPU:   29.550
  Cycle:    336 Energy:      -648.895825  Gnorm:      0.020904  CPU:   29.649
  Cycle:    337 Energy:      -648.897016  Gnorm:      0.022492  CPU:   29.729
  Cycle:    338 Energy:      -648.898065  Gnorm:      0.021871  CPU:   29.810
  Cycle:    339 Energy:      -648.899014  Gnorm:      0.026917  CPU:   29.891
  Cycle:    340 Energy:      -648.899816  Gnorm:      0.022150  CPU:   29.972
  Cycle:    341 Energy:      -648.900704  Gnorm:      0.022358  CPU:   30.052
  Cycle:    342 Energy:      -648.901832  Gnorm:      0.022039  CPU:   30.133
  Cycle:    343 Energy:      -648.902732  Gnorm:      0.019656  CPU:   30.214
  Cycle:    344 Energy:      -648.903606  Gnorm:      0.019648  CPU:   30.294
  Cycle:    345 Energy:      -648.904550  Gnorm:      0.017821  CPU:   30.375
  Cycle:    346 Energy:      -648.905336  Gnorm:      0.018279  CPU:   30.456
  Cycle:    347 Energy:      -648.906164  Gnorm:      0.020772  CPU:   30.536
  Cycle:    348 Energy:      -648.906816  Gnorm:      0.020072  CPU:   30.617
  Cycle:    349 Energy:      -648.907705  Gnorm:      0.026507  CPU:   30.698
  Cycle:    350 Energy:      -648.908522  Gnorm:      0.019670  CPU:   30.783
  Cycle:    351 Energy:      -648.909126  Gnorm:      0.019863  CPU:   30.864
  Cycle:    352 Energy:      -648.909935  Gnorm:      0.017704  CPU:   30.968
  Cycle:    353 Energy:      -648.910689  Gnorm:      0.017938  CPU:   31.049
  Cycle:    354 Energy:      -648.911539  Gnorm:      0.020236  CPU:   31.134
  Cycle:    355 Energy:      -648.912254  Gnorm:      0.019538  CPU:   31.215
  Cycle:    356 Energy:      -648.913051  Gnorm:      0.019437  CPU:   31.319
  Cycle:    357 Energy:      -648.914104  Gnorm:      0.020152  CPU:   31.419
  Cycle:    358 Energy:      -648.915065  Gnorm:      0.019367  CPU:   31.504
  Cycle:    359 Energy:      -648.915919  Gnorm:      0.029055  CPU:   31.560
  Cycle:    360 Energy:      -648.916699  Gnorm:      0.019212  CPU:   31.615
  Cycle:    361 Energy:      -648.917495  Gnorm:      0.021394  CPU:   31.688
  Cycle:    362 Energy:      -648.918308  Gnorm:      0.021227  CPU:   31.773
  Cycle:    363 Energy:      -648.919114  Gnorm:      0.017897  CPU:   31.854
  Cycle:    364 Energy:      -648.919916  Gnorm:      0.017407  CPU:   31.940
  Cycle:    365 Energy:      -648.920721  Gnorm:      0.016882  CPU:   32.021
  Cycle:    366 Energy:      -648.921332  Gnorm:      0.017571  CPU:   32.106
  Cycle:    367 Energy:      -648.921854  Gnorm:      0.018930  CPU:   32.187
  Cycle:    368 Energy:      -648.922509  Gnorm:      0.016740  CPU:   32.292
  Cycle:    369 Energy:      -648.923260  Gnorm:      0.021784  CPU:   32.391
  Cycle:    370 Energy:      -648.923958  Gnorm:      0.016974  CPU:   32.477
  Cycle:    371 Energy:      -648.924497  Gnorm:      0.018834  CPU:   32.558
  Cycle:    372 Energy:      -648.925060  Gnorm:      0.016374  CPU:   32.644
  Cycle:    373 Energy:      -648.925661  Gnorm:      0.016788  CPU:   32.725
  Cycle:    374 Energy:      -648.926321  Gnorm:      0.018308  CPU:   32.829
  Cycle:    375 Energy:      -648.926896  Gnorm:      0.017493  CPU:   32.910
  Cycle:    376 Energy:      -648.927558  Gnorm:      0.016930  CPU:   32.979
  Cycle:    377 Energy:      -648.928366  Gnorm:      0.017612  CPU:   33.039
  Cycle:    378 Energy:      -648.929109  Gnorm:      0.016477  CPU:   33.094
  Cycle:    379 Energy:      -648.929871  Gnorm:      0.028894  CPU:   33.154
  Cycle:    380 Energy:      -648.930577  Gnorm:      0.016195  CPU:   33.210
  Cycle:    381 Energy:      -648.931190  Gnorm:      0.018666  CPU:   33.269
  Cycle:    382 Energy:      -648.931769  Gnorm:      0.018515  CPU:   33.325
  Cycle:    383 Energy:      -648.932366  Gnorm:      0.015779  CPU:   33.394
  Cycle:    384 Energy:      -648.932970  Gnorm:      0.015249  CPU:   33.475
  Cycle:    385 Energy:      -648.933544  Gnorm:      0.016346  CPU:   33.556
  Cycle:    386 Energy:      -648.933961  Gnorm:      0.015610  CPU:   33.638
  Cycle:    387 Energy:      -648.934390  Gnorm:      0.014726  CPU:   33.719
  Cycle:    388 Energy:      -648.934933  Gnorm:      0.014665  CPU:   33.801
  Cycle:    389 Energy:      -648.935434  Gnorm:      0.018025  CPU:   33.882
  Cycle:    390 Energy:      -648.935817  Gnorm:      0.016164  CPU:   33.964
  Cycle:    391 Energy:      -648.936281  Gnorm:      0.014127  CPU:   34.045
  Cycle:    392 Energy:      -648.936753  Gnorm:      0.015343  CPU:   34.127
  Cycle:    393 Energy:      -648.937148  Gnorm:      0.014900  CPU:   34.208
  Cycle:    394 Energy:      -648.937670  Gnorm:      0.014673  CPU:   34.289
  Cycle:    395 Energy:      -648.938108  Gnorm:      0.015046  CPU:   34.345
  Cycle:    396 Energy:      -648.938545  Gnorm:      0.014071  CPU:   34.400
  Cycle:    397 Energy:      -648.939042  Gnorm:      0.015394  CPU:   34.456
  Cycle:    398 Energy:      -648.939562  Gnorm:      0.012868  CPU:   34.512
  Cycle:    399 Energy:      -648.940405  Gnorm:      0.028355  CPU:   34.584
  Cycle:    400 Energy:      -648.941166  Gnorm:      0.013338  CPU:   34.640
  Cycle:    401 Energy:      -648.941488  Gnorm:      0.016029  CPU:   34.699
  Cycle:    402 Energy:      -648.941941  Gnorm:      0.013437  CPU:   34.755
  Cycle:    403 Energy:      -648.942318  Gnorm:      0.012834  CPU:   34.815
  Cycle:    404 Energy:      -648.942705  Gnorm:      0.012975  CPU:   34.883
  Cycle:    405 Energy:      -648.943049  Gnorm:      0.014345  CPU:   34.955
  Cycle:    406 Energy:      -648.943381  Gnorm:      0.012284  CPU:   35.040
  Cycle:    407 Energy:      -648.943699  Gnorm:      0.013144  CPU:   35.122
  Cycle:    408 Energy:      -648.944006  Gnorm:      0.012230  CPU:   35.207
  Cycle:    409 Energy:      -648.944361  Gnorm:      0.012337  CPU:   35.288
  Cycle:    410 Energy:      -648.944640  Gnorm:      0.013337  CPU:   35.374
  Cycle:    411 Energy:      -648.944871  Gnorm:      0.011223  CPU:   35.454
  Cycle:    412 Energy:      -648.945254  Gnorm:      0.011253  CPU:   35.540
  Cycle:    413 Energy:      -648.945592  Gnorm:      0.013810  CPU:   35.602
  Cycle:    414 Energy:      -648.945859  Gnorm:      0.011462  CPU:   35.658
  Cycle:    415 Energy:      -648.946190  Gnorm:      0.010631  CPU:   35.717
  Cycle:    416 Energy:      -648.946395  Gnorm:      0.012395  CPU:   35.773
  Cycle:    417 Energy:      -648.946761  Gnorm:      0.012799  CPU:   35.845
  Cycle:    418 Energy:      -648.947022  Gnorm:      0.011423  CPU:   35.901
  Cycle:    419 Energy:      -648.947576  Gnorm:      0.025936  CPU:   35.973
  Cycle:    420 Energy:      -648.948077  Gnorm:      0.011898  CPU:   36.029
  Cycle:    421 Energy:      -648.948327  Gnorm:      0.012206  CPU:   36.088
  Cycle:    422 Energy:      -648.948658  Gnorm:      0.011896  CPU:   36.156
  Cycle:    423 Energy:      -648.948846  Gnorm:      0.009710  CPU:   36.216
  ** Hessian has required structure
  Cycle:    424 Energy:      -648.952759  Gnorm:      0.007684  CPU:   36.439
  ** Hessian has required structure
  Cycle:    425 Energy:      -648.956306  Gnorm:      0.005893  CPU:   36.538
  ** Hessian has required structure
  Cycle:    426 Energy:      -648.957938  Gnorm:      0.005137  CPU:   36.628
  ** Hessian has required structure
  Cycle:    427 Energy:      -648.958052  Gnorm:      0.000905  CPU:   36.715
  ** Hessian has required structure


  **** Optimisation achieved ****


  Final enthalpy =    -648.95805980 eV      
  Final Gnorm    =       0.00024484

  Components of enthalpy : 

--------------------------------------------------------------------------------
  Interatomic potentials     =         216.70776090 eV    
  Monopole - monopole (real) =        -499.66333794 eV    
  Monopole - monopole (recip)=        -492.15192278 eV    
  Monopole - monopole (total)=        -991.81526072 eV    
  Pressure*volume            =         126.14944002 eV    
--------------------------------------------------------------------------------
  Total lattice enthalpy     =        -648.95805980 eV    
--------------------------------------------------------------------------------
  Total lattice enthalpy     =          -62614.5325 kJ/(mole unit cells)
--------------------------------------------------------------------------------

  Final fractional coordinates of atoms :

--------------------------------------------------------------------------------
   No.  Atomic        x           y          z          Radius
        Label       (Frac)      (Frac)     (Frac)       (Angs) 
--------------------------------------------------------------------------------
     1  Al    c     0.874598    0.305121    0.373131    0.000000
     2  Al    c     0.121593    0.157855    0.706589    0.000000
     3  Al    c     0.391100    0.506729    0.058098    0.000000
     4  Al    c     0.892996    0.503720    0.057867    0.000000
     5  Al    c     0.350283    0.811984    0.355305    0.000000
     6  Al    c     0.852178    0.808973    0.355073    0.000000
     7  Al    c     0.368666    0.010579    0.040044    0.000000
     8  Al    c     0.621593    0.157856    0.706587    0.000000
     9  Mg    c     0.374507    0.306865    0.375637    0.000000
    10  Mg    c     0.869636    0.655968    0.703100    0.000000
    11  Mg    c     0.373586    0.659743    0.710072    0.000000
    12  Mg    c     0.868750    0.008839    0.037535    0.000000
    13  O     c     0.072034    0.567196    0.321360    0.000000
    14  O     c     0.784594    0.286918    0.568050    0.000000
    15  O     c     0.182669    0.286877    0.100410    0.000000
    16  O     c     0.569268    0.023710    0.298094    0.000000
    17  O     c     0.674008    0.291999    0.115078    0.000000
    18  O     c     0.263780    0.299065    0.572579    0.000000
    19  O     c     0.719325    0.462939    0.835738    0.000000
    20  O     c     0.026996    0.844962    0.575741    0.000000
    21  O     c     0.216227    0.470755    0.837432    0.000000
    22  O     c     0.171232    0.748509    0.091815    0.000000
    23  O     c     0.643358    0.745803    0.080133    0.000000
    24  O     c     0.979424    0.016645    0.840596    0.000000
    25  O     c     0.060605    0.028829    0.312762    0.000000
    26  O     c     0.523895    0.852770    0.577435    0.000000
    27  O     c     0.599908    0.569902    0.333041    0.000000
    28  O     c     0.458610    0.028793    0.845129    0.000000
--------------------------------------------------------------------------------

  Final Cartesian lattice vectors (Angstroms) :

        5.075377   -0.020960   -1.142972
        0.035248    5.236591   -0.195312
       -2.048145   -0.407534    8.080615


  Final cell parameters and derivatives :

--------------------------------------------------------------------------------
       a            5.202526 Angstrom     dE/de1(xx)    -0.003289 eV/strain
       b            5.240351 Angstrom     dE/de2(yy)     0.000227 eV/strain
       c            8.346096 Angstrom     dE/de3(zz)     0.002545 eV/strain
       alpha       94.964019 Degrees      dE/de4(yz)    -0.000017 eV/strain
       beta       116.866592 Degrees      dE/de5(xz)     0.000404 eV/strain
       gamma       89.385537 Degrees      dE/de6(xy)     0.001503 eV/strain
--------------------------------------------------------------------------------

  Primitive cell volume =           202.115245 Angs**3

  Density of cell =      4.675524 g/cm**3

  Non-primitive cell volume =           202.115245 Angs**3


  Final internal derivatives :

--------------------------------------------------------------------------------
   No.  Atomic          a             b             c           Radius
        Label          (eV)          (eV)          (eV)        (eV/Angs)
--------------------------------------------------------------------------------
      1 Al    c       0.000000      0.000000      0.000000      0.000000
      2 Al    c      -0.001842     -0.001384      0.001055      0.000000
      3 Al    c      -0.000570      0.000584      0.006475      0.000000
      4 Al    c       0.000551      0.000434      0.005741      0.000000
      5 Al    c       0.000865     -0.000874     -0.005178      0.000000
      6 Al    c       0.001555     -0.000473     -0.006858      0.000000
      7 Al    c       0.000794     -0.000317     -0.006933      0.000000
      8 Al    c      -0.000673     -0.000350      0.000430      0.000000
      9 Mg    c       0.003243     -0.000229     -0.000288      0.000000
     10 Mg    c      -0.000076      0.000285     -0.000929      0.000000
     11 Mg    c       0.000106      0.001157      0.000203      0.000000
     12 Mg    c      -0.000192      0.000153     -0.004747      0.000000
     13 O     c      -0.003737      0.000547      0.002207      0.000000
     14 O     c       0.000197      0.001490     -0.002229      0.000000
     15 O     c       0.000494      0.001761     -0.000262      0.000000
     16 O     c       0.000666     -0.000477     -0.001700      0.000000
     17 O     c      -0.000059      0.001390     -0.001721      0.000000
     18 O     c       0.001539      0.002185      0.004388      0.000000
     19 O     c       0.000033     -0.000639     -0.005123      0.000000
     20 O     c      -0.000746      0.000020      0.003505      0.000000
     21 O     c       0.000357     -0.000099     -0.002234      0.000000
     22 O     c      -0.000497     -0.001201     -0.000359      0.000000
     23 O     c      -0.000296     -0.001978      0.000125      0.000000
     24 O     c       0.000386     -0.000432      0.002113      0.000000
     25 O     c      -0.001956     -0.000176     -0.001738      0.000000
     26 O     c      -0.000638      0.000359      0.003654      0.000000
     27 O     c      -0.001218      0.000513      0.000777      0.000000
     28 O     c      -0.002069     -0.000599      0.006382      0.000000
--------------------------------------------------------------------------------
  Maximum abs         0.003737      0.002185      0.006933      0.000000
--------------------------------------------------------------------------------


  Time to end of optimisation =      36.7938 seconds


  Peak dynamic memory used =       2.03 MB 


  Timing analysis for GULP :

--------------------------------------------------------------------------------
  Task / Subroutine                                          Time (Seconds)
--------------------------------------------------------------------------------
  Calculation of reciprocal space energy and derivatives          1.2269
  Calculation of real space energy and derivatives               35.3694
  Calculation and manipulation of Hessian matrix                  0.0935
  Global summation overhead                                       0.0026
--------------------------------------------------------------------------------
  Total CPU time                                                 36.7938
--------------------------------------------------------------------------------


  Job Finished at 15:56.13 11th June       2024                               

