********************************************************************************
*                       GENERAL UTILITY LATTICE PROGRAM                        *
*                                 Julian Gale                                  *
*                       Curtin Institute for Computation                       *
*                    School of Molecular and Life Sciences                     *
*                    Curtin University, Western Australia                      *
********************************************************************************
* Version = 6.0.0 * Last modified =  12th July 2021                            *
********************************************************************************
*  optimise     - perform optimisation run                                     *
*  conp         - constant pressure calculation                                *
*  nosymmetry   - turn off symmetry after initial structure generation         *
*  conjugate    - use conjugate gradients minimiser                            *
********************************************************************************

  Job Started  at 16:00.45 11th June       2024                               

  Number of CPUs =     1


  Total number of configurations input =      1

********************************************************************************
*  Input for Configuration =   1                                               *
********************************************************************************

  Formula = Al8Mg4O16                                                   

  Number of irreducible atoms/shells =      28


  Total number atoms/shells =      28

  Dimensionality = 3               :  Bulk   



  Cartesian lattice vectors (Angstroms) :

        6.129858   -1.134044    0.746181
       -0.319517    5.249307   -0.217183
        0.516161   -0.532834    6.621164

  Cell parameters (Angstroms/Degrees):

  a =       6.2784    alpha =  97.2077
  b =       5.2635    beta  =  77.9834
  c =       6.6626    gamma = 104.1412

  Initial cell volume =         208.176407 Angs**3

  Temperature of configuration =   0.00     K 

  Pressure of configuration =       100.000 GPa 

  Fractional coordinates of asymmetric unit :

--------------------------------------------------------------------------------
   No.  Atomic       x           y          z         Charge      Occupancy
        Label      (Frac)      (Frac)     (Frac)        (e)         (Frac)  
--------------------------------------------------------------------------------
      1 Al    c    0.177008    0.268096    0.627442     3.00000    1.000000    
      2 Al    c    0.467151 *  0.377388 *  0.862467 *   3.00000    1.000000    
      3 Al    c    0.467152 *  0.377386 *  0.392414 *   3.00000    1.000000    
      4 Al    c    0.177008 *  0.268096 *  0.157388 *   3.00000    1.000000    
      5 Al    c    0.650575 *  0.043801 *  0.809700 *   3.00000    1.000000    
      6 Al    c    0.684021 *  0.554539 *  0.462754 *   3.00000    1.000000    
      7 Al    c    0.902382 *  0.313403 *  0.462089 *   3.00000    1.000000    
      8 Al    c    0.818269 *  0.861206 *  0.618420 *   3.00000    1.000000    
      9 Mg    c    0.282395 *  0.761060 *  0.862465 *   2.00000    1.000000    
     10 Mg    c    0.282396 *  0.761060 *  0.392411 *   2.00000    1.000000    
     11 Mg    c    0.693321 *  0.546210 *  0.680381 *   2.00000    1.000000    
     12 Mg    c    0.819127 *  0.862063 *  0.148366 *   2.00000    1.000000    
     13 O     c    0.317959 *  0.521462 *  0.627441 *  -2.00000    1.000000    
     14 O     c    0.300501 *  0.161685 *  0.862470 *  -2.00000    1.000000    
     15 O     c    0.317959 *  0.521461 *  0.157387 *  -2.00000    1.000000    
     16 O     c    0.300501 *  0.161685 *  0.392418 *  -2.00000    1.000000    
     17 O     c    0.558703 *  0.239719 *  0.157388 *  -2.00000    1.000000    
     18 O     c    0.055630 *  0.410250 *  0.862469 *  -2.00000    1.000000    
     19 O     c    0.089849 *  0.880301 *  0.157391 *  -2.00000    1.000000    
     20 O     c    0.526880 *  0.709775 *  0.862468 *  -2.00000    1.000000    
     21 O     c    0.526879 *  0.709774 *  0.392414 *  -2.00000    1.000000    
     22 O     c    0.089848 *  0.880301 *  0.627444 *  -2.00000    1.000000    
     23 O     c    0.055629 *  0.410250 *  0.392417 *  -2.00000    1.000000    
     24 O     c    0.558704 *  0.239721 *  0.627442 *  -2.00000    1.000000    
     25 O     c    0.904962 *  0.305117 *  0.927144 *  -2.00000    1.000000    
     26 O     c    0.684036 *  0.554182 *  0.217023 *  -2.00000    1.000000    
     27 O     c    0.696424 *  0.089649 *  0.339647 *  -2.00000    1.000000    
     28 O     c    0.690969 *  0.548963 *  0.926241 *  -2.00000    1.000000    
--------------------------------------------------------------------------------



********************************************************************************
*  General input information                                                   *
********************************************************************************

  Species output for all configurations : 

--------------------------------------------------------------------------------
  Species    Type    Atomic    Atomic    Charge       Radii (Angs)     Library
                     Number     Mass       (e)     Cova   Ionic  VDW   Symbol
--------------------------------------------------------------------------------
    Mg       Core       12      24.31   2.000000   1.100  0.000  1.640          
    Al       Core       13      26.98   3.000000   1.350  0.000  2.050          
    O        Core        8      16.00  -2.000000   0.730  0.000  1.360          
--------------------------------------------------------------------------------


  Lattice summation method               =    Ewald          (3-D)
                                         =    Parry          (2-D)
                                         =    Saunders et al (1-D)
  Accuracy factor for lattice sums       =   12.000


  Analytic derivatives to be used

  Time limit = Infinity

  Maximum range for interatomic potentials =    100000.000000 Angstroms

  General interatomic potentials :

--------------------------------------------------------------------------------
Atom  Types   Potential      Parameter       Value         Units   Cutoffs(Ang)
  1     2                                                            Min /  Max 
--------------------------------------------------------------------------------
O    c Mg   c Lennard       Lennard-Jones A  1.5000000    eV*Ang^m  0.000  6.000
                            Lennard-Jones B  0.0000000    eV*Ang^n  
                            Exponent m        12          None
                            Exponent n         6          None
--------------------------------------------------------------------------------
O    c Al   c Lennard       Lennard-Jones A  1.5000000    eV*Ang^m  0.000  6.000
                            Lennard-Jones B  0.0000000    eV*Ang^n  
                            Exponent m        12          None
                            Exponent n         6          None
--------------------------------------------------------------------------------
O    c O    c Lennard       Lennard-Jones A  1.5000000    eV*Ang^m  0.000  6.000
                            Lennard-Jones B  0.0000000    eV*Ang^n  
                            Exponent m        12          None
                            Exponent n         6          None
--------------------------------------------------------------------------------
Mg   c Mg   c Lennard       Lennard-Jones A  1.5000000    eV*Ang^m  0.000  6.000
                            Lennard-Jones B  0.0000000    eV*Ang^n  
                            Exponent m        12          None
                            Exponent n         6          None
--------------------------------------------------------------------------------
Mg   c Al   c Lennard       Lennard-Jones A  1.5000000    eV*Ang^m  0.000  6.000
                            Lennard-Jones B  0.0000000    eV*Ang^n  
                            Exponent m        12          None
                            Exponent n         6          None
--------------------------------------------------------------------------------
Al   c Al   c Lennard       Lennard-Jones A  1.5000000    eV*Ang^m  0.000  6.000
                            Lennard-Jones B  0.0000000    eV*Ang^n  
                            Exponent m        12          None
                            Exponent n         6          None
--------------------------------------------------------------------------------
O    c Mg   c Buckingham    Buckingham A     1428.5000    eV        0.000  7.000
                            Buckingham rho  0.29450000    Ang       
                            Buckingham C     0.0000000    eV*Ang^6  
--------------------------------------------------------------------------------
O    c Al   c Buckingham    Buckingham A     1114.9000    eV        0.000  7.000
                            Buckingham rho  0.31180000    Ang       
                            Buckingham C     0.0000000    eV*Ang^6  
--------------------------------------------------------------------------------
O    c O    c Buckingham    Buckingham A     2023.8000    eV        0.000  7.000
                            Buckingham rho  0.26740000    Ang       
                            Buckingham C     0.0000000    eV*Ang^6  
--------------------------------------------------------------------------------

********************************************************************************
*  Output for configuration   1                                                *
********************************************************************************


  Components of enthalpy : 

--------------------------------------------------------------------------------
  Interatomic potentials     =         338.99184604 eV    
  Monopole - monopole (real) =        -315.30534477 eV    
  Monopole - monopole (recip)=        -450.16514390 eV    
  Monopole - monopole (total)=        -765.47048867 eV    
  Pressure*volume            =         129.93249044 eV    
--------------------------------------------------------------------------------
  Total lattice enthalpy     =        -296.54615219 eV    
--------------------------------------------------------------------------------
  Total lattice enthalpy     =          -28612.1706 kJ/(mole unit cells)
--------------------------------------------------------------------------------


  Number of variables =       87

  Maximum number of calculations  =           850
  Maximum Hessian update interval =            10
  Maximum step size               =   1.000000000
  Maximum parameter tolerance     =   0.000010000
  Maximum function  tolerance     =   0.000010000
  Maximum gradient  tolerance     =   0.001000000
  Maximum gradient  component     =   0.010000000

  Cell parameters to be optimised using strains

  Conjugate gradient optimiser to be used

  Lower half triangular hessian to be used

  Minimiser to switch to RFO
  When gradient norm is less than     0.010000

  Start of bulk optimisation :

  Cycle:      0 Energy:      -296.546152  Gnorm:     24.803403  CPU:    0.067
  Cycle:      1 Energy:      -444.347621  Gnorm:      8.554368  CPU:    0.250
  Cycle:      2 Energy:      -505.417659  Gnorm:      4.829975  CPU:    0.356
  Cycle:      3 Energy:      -531.674667  Gnorm:      4.767802  CPU:    0.486
  Cycle:      4 Energy:      -549.273322  Gnorm:      3.735806  CPU:    0.615
  Cycle:      5 Energy:      -576.004461  Gnorm:      2.884965  CPU:    0.760
  Cycle:      6 Energy:      -592.300567  Gnorm:      2.025426  CPU:    0.856
  Cycle:      7 Energy:      -599.751102  Gnorm:      1.615866  CPU:    0.944
  Cycle:      8 Energy:      -604.427884  Gnorm:      1.206355  CPU:    1.031
  Cycle:      9 Energy:      -607.715930  Gnorm:      1.216826  CPU:    1.124
  Cycle:     10 Energy:      -609.949012  Gnorm:      0.937013  CPU:    1.219
  Cycle:     11 Energy:      -613.023204  Gnorm:      1.102079  CPU:    1.351
  Cycle:     12 Energy:      -617.657419  Gnorm:      1.404773  CPU:    1.472
  Cycle:     13 Energy:      -621.717498  Gnorm:      0.968374  CPU:    1.548
  Cycle:     14 Energy:      -623.918770  Gnorm:      0.806465  CPU:    1.681
  Cycle:     15 Energy:      -625.305679  Gnorm:      0.731023  CPU:    1.811
  Cycle:     16 Energy:      -626.497585  Gnorm:      0.703739  CPU:    1.945
  Cycle:     17 Energy:      -627.711840  Gnorm:      0.584433  CPU:    2.080
  Cycle:     18 Energy:      -628.673682  Gnorm:      0.439411  CPU:    2.211
  Cycle:     19 Energy:      -629.240178  Gnorm:      0.534914  CPU:    2.343
  Cycle:     20 Energy:      -629.531006  Gnorm:      0.354097  CPU:    2.450
  Cycle:     21 Energy:      -629.994045  Gnorm:      0.413552  CPU:    2.582
  Cycle:     22 Energy:      -630.488424  Gnorm:      0.487003  CPU:    2.689
  Cycle:     23 Energy:      -631.394111  Gnorm:      0.628217  CPU:    2.822
  Cycle:     24 Energy:      -632.439118  Gnorm:      0.610499  CPU:    2.930
  Cycle:     25 Energy:      -633.914656  Gnorm:      0.689783  CPU:    3.064
  Cycle:     26 Energy:      -635.157509  Gnorm:      0.626767  CPU:    3.173
  Cycle:     27 Energy:      -635.993086  Gnorm:      0.496103  CPU:    3.283
  Cycle:     28 Energy:      -636.711818  Gnorm:      0.515005  CPU:    3.418
  Cycle:     29 Energy:      -637.433871  Gnorm:      0.534072  CPU:    3.554
  Cycle:     30 Energy:      -637.803144  Gnorm:      0.373063  CPU:    3.665
  Cycle:     31 Energy:      -638.168209  Gnorm:      0.304339  CPU:    3.800
  Cycle:     32 Energy:      -638.725793  Gnorm:      0.455627  CPU:    3.937
  Cycle:     33 Energy:      -639.340173  Gnorm:      0.432559  CPU:    4.047
  Cycle:     34 Energy:      -639.740426  Gnorm:      0.359584  CPU:    4.157
  Cycle:     35 Energy:      -640.069781  Gnorm:      0.333205  CPU:    4.294
  Cycle:     36 Energy:      -640.352873  Gnorm:      0.281768  CPU:    4.431
  Cycle:     37 Energy:      -640.557941  Gnorm:      0.239913  CPU:    4.568
  Cycle:     38 Energy:      -640.762661  Gnorm:      0.254718  CPU:    4.706
  Cycle:     39 Energy:      -641.002366  Gnorm:      0.296053  CPU:    4.844
  Cycle:     40 Energy:      -641.121984  Gnorm:      0.196071  CPU:    4.956
  Cycle:     41 Energy:      -641.221687  Gnorm:      0.166509  CPU:    5.094
  Cycle:     42 Energy:      -641.313703  Gnorm:      0.184633  CPU:    5.232
  Cycle:     43 Energy:      -641.417590  Gnorm:      0.200797  CPU:    5.370
  Cycle:     44 Energy:      -641.539685  Gnorm:      0.201100  CPU:    5.507
  Cycle:     45 Energy:      -641.632979  Gnorm:      0.199793  CPU:    5.619
  Cycle:     46 Energy:      -641.758162  Gnorm:      0.194493  CPU:    5.757
  Cycle:     47 Energy:      -641.874001  Gnorm:      0.197550  CPU:    5.894
  Cycle:     48 Energy:      -642.014220  Gnorm:      0.177915  CPU:    6.032
  Cycle:     49 Energy:      -642.127142  Gnorm:      0.205168  CPU:    6.170
  Cycle:     50 Energy:      -642.185648  Gnorm:      0.136509  CPU:    6.282
  Cycle:     51 Energy:      -642.248932  Gnorm:      0.138945  CPU:    6.420
  Cycle:     52 Energy:      -642.297470  Gnorm:      0.123571  CPU:    6.531
  Cycle:     53 Energy:      -642.337947  Gnorm:      0.115692  CPU:    6.668
  Cycle:     54 Energy:      -642.380095  Gnorm:      0.111711  CPU:    6.806
  Cycle:     55 Energy:      -642.425281  Gnorm:      0.131999  CPU:    6.943
  Cycle:     56 Energy:      -642.472410  Gnorm:      0.121966  CPU:    7.054
  Cycle:     57 Energy:      -642.521569  Gnorm:      0.133215  CPU:    7.192
  Cycle:     58 Energy:      -642.604058  Gnorm:      0.157360  CPU:    7.329
  Cycle:     59 Energy:      -642.680743  Gnorm:      0.184382  CPU:    7.440
  Cycle:     60 Energy:      -642.730221  Gnorm:      0.142038  CPU:    7.552
  Cycle:     61 Energy:      -642.798827  Gnorm:      0.150105  CPU:    7.689
  Cycle:     62 Energy:      -642.869601  Gnorm:      0.166426  CPU:    7.828
  Cycle:     63 Energy:      -642.958878  Gnorm:      0.186304  CPU:    7.966
  Cycle:     64 Energy:      -643.048824  Gnorm:      0.167037  CPU:    8.078
  Cycle:     65 Energy:      -643.131536  Gnorm:      0.157956  CPU:    8.217
  Cycle:     66 Energy:      -643.232025  Gnorm:      0.192752  CPU:    8.356
  Cycle:     67 Energy:      -643.360750  Gnorm:      0.198119  CPU:    8.495
  Cycle:     68 Energy:      -643.466654  Gnorm:      0.191610  CPU:    8.608
  Cycle:     69 Energy:      -643.570269  Gnorm:      0.193503  CPU:    8.748
  Cycle:     70 Energy:      -643.632150  Gnorm:      0.159547  CPU:    8.862
  Cycle:     71 Energy:      -643.713110  Gnorm:      0.172192  CPU:    9.002
  Cycle:     72 Energy:      -643.795108  Gnorm:      0.165904  CPU:    9.115
  Cycle:     73 Energy:      -643.858554  Gnorm:      0.148223  CPU:    9.229
  Cycle:     74 Energy:      -643.932541  Gnorm:      0.182983  CPU:    9.369
  Cycle:     75 Energy:      -644.079806  Gnorm:      0.235528  CPU:    9.508
  Cycle:     76 Energy:      -644.269993  Gnorm:      0.264996  CPU:    9.621
  Cycle:     77 Energy:      -644.422637  Gnorm:      0.250264  CPU:    9.734
  Cycle:     78 Energy:      -644.624001  Gnorm:      0.268990  CPU:    9.874
  Cycle:     79 Energy:      -644.751834  Gnorm:      0.183195  CPU:    9.986
  Cycle:     80 Energy:      -644.810144  Gnorm:      0.165617  CPU:   10.126
  Cycle:     81 Energy:      -644.883400  Gnorm:      0.138471  CPU:   10.265
  Cycle:     82 Energy:      -644.944450  Gnorm:      0.106606  CPU:   10.405
  Cycle:     83 Energy:      -644.978264  Gnorm:      0.093122  CPU:   10.544
  Cycle:     84 Energy:      -645.002735  Gnorm:      0.080121  CPU:   10.684
  Cycle:     85 Energy:      -645.018618  Gnorm:      0.076839  CPU:   10.797
  Cycle:     86 Energy:      -645.035520  Gnorm:      0.073625  CPU:   10.937
  Cycle:     87 Energy:      -645.058364  Gnorm:      0.095396  CPU:   11.077
  Cycle:     88 Energy:      -645.084212  Gnorm:      0.081894  CPU:   11.191
  Cycle:     89 Energy:      -645.105367  Gnorm:      0.095142  CPU:   11.331
  Cycle:     90 Energy:      -645.116071  Gnorm:      0.054949  CPU:   11.444
  Cycle:     91 Energy:      -645.128098  Gnorm:      0.062080  CPU:   11.558
  Cycle:     92 Energy:      -645.137624  Gnorm:      0.051493  CPU:   11.671
  Cycle:     93 Energy:      -645.144450  Gnorm:      0.052001  CPU:   11.784
  Cycle:     94 Energy:      -645.153036  Gnorm:      0.053205  CPU:   11.924
  Cycle:     95 Energy:      -645.163095  Gnorm:      0.054166  CPU:   12.063
  Cycle:     96 Energy:      -645.172871  Gnorm:      0.055044  CPU:   12.203
  Cycle:     97 Energy:      -645.184818  Gnorm:      0.067835  CPU:   12.342
  Cycle:     98 Energy:      -645.199516  Gnorm:      0.078716  CPU:   12.455
  Cycle:     99 Energy:      -645.220722  Gnorm:      0.088810  CPU:   12.568
  Cycle:    100 Energy:      -645.233261  Gnorm:      0.061439  CPU:   12.680
  Cycle:    101 Energy:      -645.243063  Gnorm:      0.049711  CPU:   12.819
  Cycle:    102 Energy:      -645.249133  Gnorm:      0.042860  CPU:   12.932
  Cycle:    103 Energy:      -645.254996  Gnorm:      0.040118  CPU:   13.072
  Cycle:    104 Energy:      -645.260133  Gnorm:      0.037422  CPU:   13.185
  Cycle:    105 Energy:      -645.264217  Gnorm:      0.034212  CPU:   13.297
  Cycle:    106 Energy:      -645.267228  Gnorm:      0.032171  CPU:   13.411
  Cycle:    107 Energy:      -645.270989  Gnorm:      0.037334  CPU:   13.550
  Cycle:    108 Energy:      -645.275328  Gnorm:      0.034878  CPU:   13.664
  Cycle:    109 Energy:      -645.279429  Gnorm:      0.048960  CPU:   13.804
  Cycle:    110 Energy:      -645.282667  Gnorm:      0.032024  CPU:   13.917
  Cycle:    111 Energy:      -645.285973  Gnorm:      0.032112  CPU:   14.031
  Cycle:    112 Energy:      -645.288967  Gnorm:      0.027934  CPU:   14.144
  Cycle:    113 Energy:      -645.291339  Gnorm:      0.028607  CPU:   14.257
  Cycle:    114 Energy:      -645.294185  Gnorm:      0.032287  CPU:   14.370
  Cycle:    115 Energy:      -645.297278  Gnorm:      0.031372  CPU:   14.484
  Cycle:    116 Energy:      -645.300651  Gnorm:      0.032031  CPU:   14.624
  Cycle:    117 Energy:      -645.303913  Gnorm:      0.032780  CPU:   14.737
  Cycle:    118 Energy:      -645.308562  Gnorm:      0.040805  CPU:   14.878
  Cycle:    119 Energy:      -645.313336  Gnorm:      0.050538  CPU:   14.990
  Cycle:    120 Energy:      -645.317289  Gnorm:      0.035942  CPU:   15.103
  Cycle:    121 Energy:      -645.320667  Gnorm:      0.027746  CPU:   15.216
  Cycle:    122 Energy:      -645.322969  Gnorm:      0.026702  CPU:   15.328
  Cycle:    123 Energy:      -645.325233  Gnorm:      0.025341  CPU:   15.441
  Cycle:    124 Energy:      -645.327139  Gnorm:      0.025149  CPU:   15.554
  Cycle:    125 Energy:      -645.328757  Gnorm:      0.021247  CPU:   15.667
  Cycle:    126 Energy:      -645.330035  Gnorm:      0.019897  CPU:   15.779
  Cycle:    127 Energy:      -645.331482  Gnorm:      0.021899  CPU:   15.919
  Cycle:    128 Energy:      -645.332937  Gnorm:      0.020980  CPU:   16.031
  Cycle:    129 Energy:      -645.334293  Gnorm:      0.028674  CPU:   16.144
  Cycle:    130 Energy:      -645.335487  Gnorm:      0.019228  CPU:   16.257
  Cycle:    131 Energy:      -645.336687  Gnorm:      0.019639  CPU:   16.370
  Cycle:    132 Energy:      -645.337856  Gnorm:      0.017722  CPU:   16.482
  Cycle:    133 Energy:      -645.338867  Gnorm:      0.018658  CPU:   16.595
  Cycle:    134 Energy:      -645.340085  Gnorm:      0.021065  CPU:   16.708
  Cycle:    135 Energy:      -645.341341  Gnorm:      0.020315  CPU:   16.820
  Cycle:    136 Energy:      -645.342713  Gnorm:      0.020511  CPU:   16.933
  Cycle:    137 Energy:      -645.344034  Gnorm:      0.020499  CPU:   17.046
  Cycle:    138 Energy:      -645.345803  Gnorm:      0.024708  CPU:   17.185
  Cycle:    139 Energy:      -645.347587  Gnorm:      0.032096  CPU:   17.298
  Cycle:    140 Energy:      -645.349119  Gnorm:      0.022076  CPU:   17.410
  Cycle:    141 Energy:      -645.350468  Gnorm:      0.017710  CPU:   17.523
  Cycle:    142 Energy:      -645.351450  Gnorm:      0.017605  CPU:   17.636
  Cycle:    143 Energy:      -645.352416  Gnorm:      0.016655  CPU:   17.748
  Cycle:    144 Energy:      -645.353220  Gnorm:      0.016304  CPU:   17.861
  Cycle:    145 Energy:      -645.353918  Gnorm:      0.013874  CPU:   17.974
  Cycle:    146 Energy:      -645.354468  Gnorm:      0.012848  CPU:   18.086
  Cycle:    147 Energy:      -645.355074  Gnorm:      0.013819  CPU:   18.199
  Cycle:    148 Energy:      -645.355661  Gnorm:      0.013023  CPU:   18.312
  Cycle:    149 Energy:      -645.356207  Gnorm:      0.018773  CPU:   18.425
  Cycle:    150 Energy:      -645.356696  Gnorm:      0.012094  CPU:   18.537
  Cycle:    151 Energy:      -645.357196  Gnorm:      0.012638  CPU:   18.650
  Cycle:    152 Energy:      -645.357703  Gnorm:      0.011648  CPU:   18.763
  Cycle:    153 Energy:      -645.358148  Gnorm:      0.012310  CPU:   18.876
  Cycle:    154 Energy:      -645.358669  Gnorm:      0.013632  CPU:   19.019
  Cycle:    155 Energy:      -645.359200  Gnorm:      0.013327  CPU:   19.136
  Cycle:    156 Energy:      -645.359789  Gnorm:      0.013564  CPU:   19.253
  Cycle:    157 Energy:      -645.360361  Gnorm:      0.013288  CPU:   19.370
  Cycle:    158 Energy:      -645.361088  Gnorm:      0.015533  CPU:   19.487
  Cycle:    159 Energy:      -645.361799  Gnorm:      0.020550  CPU:   19.604
  Cycle:    160 Energy:      -645.362423  Gnorm:      0.014077  CPU:   19.721
  Cycle:    161 Energy:      -645.362995  Gnorm:      0.011620  CPU:   19.837
  Cycle:    162 Energy:      -645.363430  Gnorm:      0.011721  CPU:   19.954
  Cycle:    163 Energy:      -645.363850  Gnorm:      0.010961  CPU:   20.071
  Cycle:    164 Energy:      -645.364192  Gnorm:      0.010559  CPU:   20.188
  Cycle:    165 Energy:      -645.364491  Gnorm:      0.009177  CPU:   20.305
  ** Hessian has required structure
  Cycle:    166 Energy:      -645.367751  Gnorm:      0.007062  CPU:   20.634
  ** Hessian has required structure
  Cycle:    167 Energy:      -645.371059  Gnorm:      0.004052  CPU:   20.823
  ** Hessian has required structure
  Cycle:    168 Energy:      -645.372475  Gnorm:      0.001305  CPU:   20.985
  ** Hessian has required structure


  **** Optimisation achieved ****


  Final enthalpy =    -645.37248417 eV      
  Final Gnorm    =       0.00012102

  Components of enthalpy : 

--------------------------------------------------------------------------------
  Interatomic potentials     =         221.49310474 eV    
  Monopole - monopole (real) =        -505.49683368 eV    
  Monopole - monopole (recip)=        -489.58403966 eV    
  Monopole - monopole (total)=        -995.08087334 eV    
  Pressure*volume            =         128.21528443 eV    
--------------------------------------------------------------------------------
  Total lattice enthalpy     =        -645.37248417 eV    
--------------------------------------------------------------------------------
  Total lattice enthalpy     =          -62268.5793 kJ/(mole unit cells)
--------------------------------------------------------------------------------

  Final fractional coordinates of atoms :

--------------------------------------------------------------------------------
   No.  Atomic        x           y          z          Radius
        Label       (Frac)      (Frac)     (Frac)       (Angs) 
--------------------------------------------------------------------------------
     1  Al    c     0.177008    0.268096    0.627442    0.000000
     2  Al    c     0.511785    0.605682    0.792460    0.000000
     3  Al    c     0.204143    0.297935    0.177962    0.000000
     4  Al    c     0.960952    0.520979    0.021349    0.000000
     5  Al    c     0.623324    0.208612    0.854729    0.000000
     6  Al    c     0.545088    0.628387    0.270660    0.000000
     7  Al    c     0.641633    0.227653    0.369571    0.000000
     8  Al    c     0.880108    0.917032    0.459929    0.000000
     9  Mg    c     0.330975    0.877835    0.649931    0.000000
    10  Mg    c     0.312069    0.885242    0.134896    0.000000
    11  Mg    c     0.953774    0.544223    0.558903    0.000000
    12  Mg    c     0.904283    0.936513    0.939735    0.000000
    13  O     c     0.664010    0.653430    0.508364    0.000000
    14  O     c     0.450899    0.291073    0.639909    0.000000
    15  O     c     0.362443    0.563475    0.078900    0.000000
    16  O     c     0.166129    0.106335    0.357817    0.000000
    17  O     c     0.574405    0.320642    0.161341    0.000000
    18  O     c     0.208554    0.621334    0.823936    0.000000
    19  O     c     0.268436    0.095639    0.948718    0.000000
    20  O     c     0.594264    0.913944    0.864507    0.000000
    21  O     c     0.541008    0.925106    0.325788    0.000000
    22  O     c     0.039498    0.874885    0.618704    0.000000
    23  O     c     0.264944    0.506669    0.445975    0.000000
    24  O     c     0.789267    0.173163    0.559969    0.000000
    25  O     c     0.952278    0.247220    0.862788    0.000000
    26  O     c     0.903718    0.779131    0.178487    0.000000
    27  O     c     0.937325    0.375969    0.246631    0.000000
    28  O     c     0.751099    0.542825    0.862105    0.000000
--------------------------------------------------------------------------------

  Final Cartesian lattice vectors (Angstroms) :

        5.863377   -1.377424    0.987130
       -0.366227    5.924543   -0.467635
        0.755304   -0.926135    6.179946


  Final cell parameters and derivatives :

--------------------------------------------------------------------------------
       a            6.103352 Angstrom     dE/de1(xx)    -0.000156 eV/strain
       b            5.954243 Angstrom     dE/de2(yy)    -0.001409 eV/strain
       c            6.294438 Angstrom     dE/de3(zz)     0.000331 eV/strain
       alpha      103.349577 Degrees      dE/de4(yz)    -0.000723 eV/strain
       beta        72.104775 Degrees      dE/de5(xz)     0.003440 eV/strain
       gamma      107.238411 Degrees      dE/de6(xy)    -0.003693 eV/strain
--------------------------------------------------------------------------------

  Primitive cell volume =           205.425119 Angs**3

  Density of cell =      4.600190 g/cm**3

  Non-primitive cell volume =           205.425119 Angs**3


  Final internal derivatives :

--------------------------------------------------------------------------------
   No.  Atomic          a             b             c           Radius
        Label          (eV)          (eV)          (eV)        (eV/Angs)
--------------------------------------------------------------------------------
      1 Al    c       0.000000      0.000000      0.000000      0.000000
      2 Al    c       0.000959     -0.000516      0.001095      0.000000
      3 Al    c       0.000137      0.000242      0.001720      0.000000
      4 Al    c      -0.001171     -0.001452      0.000068      0.000000
      5 Al    c       0.000193      0.000669      0.000829      0.000000
      6 Al    c       0.000225     -0.000637     -0.001062      0.000000
      7 Al    c      -0.001239      0.000295     -0.000829      0.000000
      8 Al    c       0.000862      0.001312     -0.000693      0.000000
      9 Mg    c      -0.000311      0.000700     -0.000810      0.000000
     10 Mg    c       0.000565      0.001039      0.000484      0.000000
     11 Mg    c       0.000892     -0.001849     -0.000984      0.000000
     12 Mg    c      -0.001893      0.001237     -0.000678      0.000000
     13 O     c       0.000333      0.001176      0.001549      0.000000
     14 O     c       0.003212      0.000101      0.000173      0.000000
     15 O     c       0.000198      0.000405     -0.000132      0.000000
     16 O     c      -0.000583     -0.001781      0.001007      0.000000
     17 O     c       0.000218      0.000936      0.000332      0.000000
     18 O     c       0.000577      0.001783     -0.001149      0.000000
     19 O     c       0.000092      0.000045      0.000311      0.000000
     20 O     c       0.001585      0.000743     -0.000409      0.000000
     21 O     c       0.000337     -0.000204      0.001421      0.000000
     22 O     c      -0.002404     -0.001238      0.000116      0.000000
     23 O     c       0.001057      0.000903     -0.000874      0.000000
     24 O     c      -0.000591     -0.001575      0.001244      0.000000
     25 O     c       0.000081     -0.001758     -0.000467      0.000000
     26 O     c      -0.000027     -0.000160     -0.000529      0.000000
     27 O     c       0.000769      0.000725     -0.000962      0.000000
     28 O     c      -0.000927      0.000939      0.000028      0.000000
--------------------------------------------------------------------------------
  Maximum abs         0.003212      0.001849      0.001720      0.000000
--------------------------------------------------------------------------------


  Time to end of optimisation =      21.1174 seconds


  Peak dynamic memory used =       2.03 MB 


  Timing analysis for GULP :

--------------------------------------------------------------------------------
  Task / Subroutine                                          Time (Seconds)
--------------------------------------------------------------------------------
  Calculation of reciprocal space energy and derivatives          0.4719
  Calculation of real space energy and derivatives               20.5197
  Calculation and manipulation of Hessian matrix                  0.0763
  Global summation overhead                                       0.0011
--------------------------------------------------------------------------------
  Total CPU time                                                 21.1175
--------------------------------------------------------------------------------


  Job Finished at 16:01.06 11th June       2024                               

