********************************************************************************
*                       GENERAL UTILITY LATTICE PROGRAM                        *
*                                 Julian Gale                                  *
*                       Curtin Institute for Computation                       *
*                    School of Molecular and Life Sciences                     *
*                    Curtin University, Western Australia                      *
********************************************************************************
* Version = 6.0.0 * Last modified =  12th July 2021                            *
********************************************************************************
*  optimise     - perform optimisation run                                     *
*  conp         - constant pressure calculation                                *
*  nosymmetry   - turn off symmetry after initial structure generation         *
*  conjugate    - use conjugate gradients minimiser                            *
********************************************************************************

  Job Started  at 16:05.28 11th June       2024                               

  Number of CPUs =     1


  Total number of configurations input =      1

********************************************************************************
*  Input for Configuration =   1                                               *
********************************************************************************

  Formula = Al8Mg4O16                                                   

  Number of irreducible atoms/shells =      28


  Total number atoms/shells =      28

  Dimensionality = 3               :  Bulk   



  Cartesian lattice vectors (Angstroms) :

        6.884348   -0.999031   -0.493124
        0.190091    5.320715    0.064533
       -0.275564    0.076264    5.674231

  Cell parameters (Angstroms/Degrees):

  a =       6.9739    alpha =  88.6370
  b =       5.3245    beta  =  96.9165
  c =       5.6814    gamma =  96.2441

  Initial cell volume =         208.176407 Angs**3

  Temperature of configuration =   0.00     K 

  Pressure of configuration =       100.000 GPa 

  Fractional coordinates of asymmetric unit :

--------------------------------------------------------------------------------
   No.  Atomic       x           y          z         Charge      Occupancy
        Label      (Frac)      (Frac)     (Frac)        (e)         (Frac)  
--------------------------------------------------------------------------------
      1 Al    c    0.364088    0.657755    0.583093     3.00000    1.000000    
      2 Al    c    0.157726 *  0.172199 *  0.628473 *   3.00000    1.000000    
      3 Al    c    0.060711 *  0.657218 *  0.287505 *   3.00000    1.000000    
      4 Al    c    0.458232 *  0.173539 *  0.925023 *   3.00000    1.000000    
      5 Al    c    0.554713 *  0.056036 *  0.847462 *   3.00000    1.000000    
      6 Al    c    0.968873 *  0.721632 *  0.332775 *   3.00000    1.000000    
      7 Al    c    0.724297 *  0.955847 *  0.351590 *   3.00000    1.000000    
      8 Al    c    0.671518 *  0.662539 *  0.840218 *   3.00000    1.000000    
      9 Mg    c    0.219795 *  0.664650 *  0.936776 *   2.00000    1.000000    
     10 Mg    c    0.273186 *  0.174393 *  0.250178 *   2.00000    1.000000    
     11 Mg    c    0.908530 *  0.441631 *  0.452237 *   2.00000    1.000000    
     12 Mg    c    0.731304 *  0.216900 *  0.154182 *   2.00000    1.000000    
     13 O     c    0.206141 *  0.369127 *  0.451175 *  -2.00000    1.000000    
     14 O     c    0.360144 *  0.472526 *  0.787032 *  -2.00000    1.000000    
     15 O     c    0.491012 *  0.346177 *  0.182569 *  -2.00000    1.000000    
     16 O     c    0.212848 *  0.076206 *  0.915969 *  -2.00000    1.000000    
     17 O     c    0.098942 *  0.815915 *  0.545146 *  -2.00000    1.000000    
     18 O     c    0.060849 *  0.469966 *  0.085881 *  -2.00000    1.000000    
     19 O     c    0.425450 *  0.000905 *  0.690512 *  -2.00000    1.000000    
     20 O     c    0.322014 *  0.773813 *  0.317426 *  -2.00000    1.000000    
     21 O     c    0.859997 *  0.372962 *  0.820851 *  -2.00000    1.000000    
     22 O     c    0.658687 *  0.377872 *  0.376305 *  -2.00000    1.000000    
     23 O     c    0.969291 *  0.027725 *  0.247432 *  -2.00000    1.000000    
     24 O     c    0.602434 *  0.347417 *  0.724168 *  -2.00000    1.000000    
     25 O     c    0.721507 *  0.678260 *  0.426926 *  -2.00000    1.000000    
     26 O     c    0.920133 *  0.669040 *  0.963537 *  -2.00000    1.000000    
     27 O     c    0.779342 *  0.039620 *  0.690429 *  -2.00000    1.000000    
     28 O     c    0.558815 *  0.821398 *  0.108256 *  -2.00000    1.000000    
--------------------------------------------------------------------------------



********************************************************************************
*  General input information                                                   *
********************************************************************************

  Species output for all configurations : 

--------------------------------------------------------------------------------
  Species    Type    Atomic    Atomic    Charge       Radii (Angs)     Library
                     Number     Mass       (e)     Cova   Ionic  VDW   Symbol
--------------------------------------------------------------------------------
    Mg       Core       12      24.31   2.000000   1.100  0.000  1.640          
    Al       Core       13      26.98   3.000000   1.350  0.000  2.050          
    O        Core        8      16.00  -2.000000   0.730  0.000  1.360          
--------------------------------------------------------------------------------


  Lattice summation method               =    Ewald          (3-D)
                                         =    Parry          (2-D)
                                         =    Saunders et al (1-D)
  Accuracy factor for lattice sums       =   12.000


  Analytic derivatives to be used

  Time limit = Infinity

  Maximum range for interatomic potentials =    100000.000000 Angstroms

  General interatomic potentials :

--------------------------------------------------------------------------------
Atom  Types   Potential      Parameter       Value         Units   Cutoffs(Ang)
  1     2                                                            Min /  Max 
--------------------------------------------------------------------------------
O    c Mg   c Lennard       Lennard-Jones A  1.5000000    eV*Ang^m  0.000  6.000
                            Lennard-Jones B  0.0000000    eV*Ang^n  
                            Exponent m        12          None
                            Exponent n         6          None
--------------------------------------------------------------------------------
O    c Al   c Lennard       Lennard-Jones A  1.5000000    eV*Ang^m  0.000  6.000
                            Lennard-Jones B  0.0000000    eV*Ang^n  
                            Exponent m        12          None
                            Exponent n         6          None
--------------------------------------------------------------------------------
O    c O    c Lennard       Lennard-Jones A  1.5000000    eV*Ang^m  0.000  6.000
                            Lennard-Jones B  0.0000000    eV*Ang^n  
                            Exponent m        12          None
                            Exponent n         6          None
--------------------------------------------------------------------------------
Mg   c Mg   c Lennard       Lennard-Jones A  1.5000000    eV*Ang^m  0.000  6.000
                            Lennard-Jones B  0.0000000    eV*Ang^n  
                            Exponent m        12          None
                            Exponent n         6          None
--------------------------------------------------------------------------------
Mg   c Al   c Lennard       Lennard-Jones A  1.5000000    eV*Ang^m  0.000  6.000
                            Lennard-Jones B  0.0000000    eV*Ang^n  
                            Exponent m        12          None
                            Exponent n         6          None
--------------------------------------------------------------------------------
Al   c Al   c Lennard       Lennard-Jones A  1.5000000    eV*Ang^m  0.000  6.000
                            Lennard-Jones B  0.0000000    eV*Ang^n  
                            Exponent m        12          None
                            Exponent n         6          None
--------------------------------------------------------------------------------
O    c Mg   c Buckingham    Buckingham A     1428.5000    eV        0.000  7.000
                            Buckingham rho  0.29450000    Ang       
                            Buckingham C     0.0000000    eV*Ang^6  
--------------------------------------------------------------------------------
O    c Al   c Buckingham    Buckingham A     1114.9000    eV        0.000  7.000
                            Buckingham rho  0.31180000    Ang       
                            Buckingham C     0.0000000    eV*Ang^6  
--------------------------------------------------------------------------------
O    c O    c Buckingham    Buckingham A     2023.8000    eV        0.000  7.000
                            Buckingham rho  0.26740000    Ang       
                            Buckingham C     0.0000000    eV*Ang^6  
--------------------------------------------------------------------------------

********************************************************************************
*  Output for configuration   1                                                *
********************************************************************************


  Components of enthalpy : 

--------------------------------------------------------------------------------
  Interatomic potentials     =         266.37321157 eV    
  Monopole - monopole (real) =        -257.52143820 eV    
  Monopole - monopole (recip)=        -474.94852014 eV    
  Monopole - monopole (total)=        -732.46995833 eV    
  Pressure*volume            =         129.93249045 eV    
--------------------------------------------------------------------------------
  Total lattice enthalpy     =        -336.16425631 eV    
--------------------------------------------------------------------------------
  Total lattice enthalpy     =          -32434.7120 kJ/(mole unit cells)
--------------------------------------------------------------------------------


  Number of variables =       87

  Maximum number of calculations  =           850
  Maximum Hessian update interval =            10
  Maximum step size               =   1.000000000
  Maximum parameter tolerance     =   0.000010000
  Maximum function  tolerance     =   0.000010000
  Maximum gradient  tolerance     =   0.001000000
  Maximum gradient  component     =   0.010000000

  Cell parameters to be optimised using strains

  Conjugate gradient optimiser to be used

  Lower half triangular hessian to be used

  Minimiser to switch to RFO
  When gradient norm is less than     0.010000

  Start of bulk optimisation :

  Cycle:      0 Energy:      -336.164256  Gnorm:     46.739327  CPU:    0.052
  Cycle:      1 Energy:      -465.947736  Gnorm:     10.106544  CPU:    0.160
  Cycle:      2 Energy:      -536.152167  Gnorm:      5.479516  CPU:    0.263
  Cycle:      3 Energy:      -565.555642  Gnorm:      3.723188  CPU:    0.354
  Cycle:      4 Energy:      -584.227699  Gnorm:      2.649190  CPU:    0.430
  Cycle:      5 Energy:      -596.365521  Gnorm:      2.139988  CPU:    0.494
  Cycle:      6 Energy:      -602.715266  Gnorm:      1.625927  CPU:    0.556
  Cycle:      7 Energy:      -607.336973  Gnorm:      1.795336  CPU:    0.622
  Cycle:      8 Energy:      -612.199471  Gnorm:      1.474385  CPU:    0.686
  Cycle:      9 Energy:      -616.331819  Gnorm:      1.262326  CPU:    0.751
  Cycle:     10 Energy:      -618.974141  Gnorm:      1.114682  CPU:    0.812
  Cycle:     11 Energy:      -621.918863  Gnorm:      1.338999  CPU:    0.880
  Cycle:     12 Energy:      -624.805388  Gnorm:      1.586236  CPU:    0.930
  Cycle:     13 Energy:      -629.334576  Gnorm:      1.358844  CPU:    0.996
  Cycle:     14 Energy:      -631.482041  Gnorm:      0.942508  CPU:    1.046
  Cycle:     15 Energy:      -632.815793  Gnorm:      0.733470  CPU:    1.111
  Cycle:     16 Energy:      -633.655170  Gnorm:      0.524713  CPU:    1.172
  Cycle:     17 Energy:      -634.159834  Gnorm:      0.400439  CPU:    1.240
  Cycle:     18 Energy:      -634.511299  Gnorm:      0.393487  CPU:    1.301
  Cycle:     19 Energy:      -634.798413  Gnorm:      0.369930  CPU:    1.354
  Cycle:     20 Energy:      -634.953345  Gnorm:      0.308939  CPU:    1.405
  Cycle:     21 Energy:      -635.189416  Gnorm:      0.336936  CPU:    1.465
  Cycle:     22 Energy:      -635.614638  Gnorm:      0.543652  CPU:    1.526
  Cycle:     23 Energy:      -636.312571  Gnorm:      0.744495  CPU:    1.587
  Cycle:     24 Energy:      -637.444265  Gnorm:      0.793931  CPU:    1.637
  Cycle:     25 Energy:      -638.215159  Gnorm:      0.495300  CPU:    1.686
  Cycle:     26 Energy:      -638.841557  Gnorm:      0.453923  CPU:    1.747
  Cycle:     27 Energy:      -639.185675  Gnorm:      0.383612  CPU:    1.796
  Cycle:     28 Energy:      -639.434220  Gnorm:      0.343575  CPU:    1.860
  Cycle:     29 Energy:      -639.700692  Gnorm:      0.318849  CPU:    1.921
  Cycle:     30 Energy:      -639.812244  Gnorm:      0.210656  CPU:    1.971
  Cycle:     31 Energy:      -639.901305  Gnorm:      0.227352  CPU:    2.032
  Cycle:     32 Energy:      -639.987043  Gnorm:      0.158171  CPU:    2.082
  Cycle:     33 Energy:      -640.057309  Gnorm:      0.173963  CPU:    2.133
  Cycle:     34 Energy:      -640.223075  Gnorm:      0.217875  CPU:    2.194
  Cycle:     35 Energy:      -640.330126  Gnorm:      0.257899  CPU:    2.244
  Cycle:     36 Energy:      -640.420925  Gnorm:      0.180076  CPU:    2.294
  Cycle:     37 Energy:      -640.484386  Gnorm:      0.119284  CPU:    2.355
  Cycle:     38 Energy:      -640.518475  Gnorm:      0.108936  CPU:    2.405
  Cycle:     39 Energy:      -640.539702  Gnorm:      0.113283  CPU:    2.455
  Cycle:     40 Energy:      -640.551647  Gnorm:      0.082850  CPU:    2.505
  Cycle:     41 Energy:      -640.572843  Gnorm:      0.087973  CPU:    2.567
  Cycle:     42 Energy:      -640.605183  Gnorm:      0.099271  CPU:    2.628
  Cycle:     43 Energy:      -640.631299  Gnorm:      0.089036  CPU:    2.678
  Cycle:     44 Energy:      -640.646350  Gnorm:      0.091374  CPU:    2.728
  Cycle:     45 Energy:      -640.661635  Gnorm:      0.077415  CPU:    2.790
  Cycle:     46 Energy:      -640.673288  Gnorm:      0.065219  CPU:    2.851
  Cycle:     47 Energy:      -640.686821  Gnorm:      0.082787  CPU:    2.913
  Cycle:     48 Energy:      -640.698471  Gnorm:      0.073675  CPU:    2.963
  Cycle:     49 Energy:      -640.709505  Gnorm:      0.078884  CPU:    3.024
  Cycle:     50 Energy:      -640.715823  Gnorm:      0.052409  CPU:    3.074
  Cycle:     51 Energy:      -640.722089  Gnorm:      0.057228  CPU:    3.124
  Cycle:     52 Energy:      -640.728472  Gnorm:      0.046718  CPU:    3.174
  Cycle:     53 Energy:      -640.734366  Gnorm:      0.053362  CPU:    3.224
  Cycle:     54 Energy:      -640.741495  Gnorm:      0.064935  CPU:    3.274
  Cycle:     55 Energy:      -640.749376  Gnorm:      0.058917  CPU:    3.325
  Cycle:     56 Energy:      -640.762189  Gnorm:      0.068447  CPU:    3.375
  Cycle:     57 Energy:      -640.776773  Gnorm:      0.078772  CPU:    3.425
  Cycle:     58 Energy:      -640.808789  Gnorm:      0.150757  CPU:    3.490
  Cycle:     59 Energy:      -640.888020  Gnorm:      0.234936  CPU:    3.552
  Cycle:     60 Energy:      -640.965631  Gnorm:      0.210114  CPU:    3.614
  Cycle:     61 Energy:      -641.042999  Gnorm:      0.167199  CPU:    3.665
  Cycle:     62 Energy:      -641.125186  Gnorm:      0.197496  CPU:    3.727
  Cycle:     63 Energy:      -641.210774  Gnorm:      0.204204  CPU:    3.777
  Cycle:     64 Energy:      -641.295649  Gnorm:      0.228618  CPU:    3.828
  Cycle:     65 Energy:      -641.425592  Gnorm:      0.199179  CPU:    3.891
  Cycle:     66 Energy:      -641.517641  Gnorm:      0.182777  CPU:    3.954
  Cycle:     67 Energy:      -641.607003  Gnorm:      0.208814  CPU:    4.015
  Cycle:     68 Energy:      -641.691244  Gnorm:      0.207019  CPU:    4.066
  Cycle:     69 Energy:      -641.780844  Gnorm:      0.208612  CPU:    4.127
  Cycle:     70 Energy:      -641.838432  Gnorm:      0.173072  CPU:    4.178
  Cycle:     71 Energy:      -641.916720  Gnorm:      0.199177  CPU:    4.239
  Cycle:     72 Energy:      -641.995813  Gnorm:      0.181936  CPU:    4.289
  Cycle:     73 Energy:      -642.079909  Gnorm:      0.199918  CPU:    4.351
  Cycle:     74 Energy:      -642.214721  Gnorm:      0.293691  CPU:    4.412
  Cycle:     75 Energy:      -642.338896  Gnorm:      0.230327  CPU:    4.463
  Cycle:     76 Energy:      -642.480383  Gnorm:      0.250518  CPU:    4.524
  Cycle:     77 Energy:      -642.609135  Gnorm:      0.241200  CPU:    4.574
  Cycle:     78 Energy:      -642.711564  Gnorm:      0.218477  CPU:    4.625
  Cycle:     79 Energy:      -642.824697  Gnorm:      0.205317  CPU:    4.690
  Cycle:     80 Energy:      -642.884209  Gnorm:      0.168808  CPU:    4.740
  Cycle:     81 Energy:      -642.936119  Gnorm:      0.172103  CPU:    4.802
  Cycle:     82 Energy:      -643.014679  Gnorm:      0.162866  CPU:    4.863
  Cycle:     83 Energy:      -643.084393  Gnorm:      0.161276  CPU:    4.924
  Cycle:     84 Energy:      -643.153944  Gnorm:      0.195072  CPU:    4.986
  Cycle:     85 Energy:      -643.230109  Gnorm:      0.197641  CPU:    5.036
  Cycle:     86 Energy:      -643.327269  Gnorm:      0.188782  CPU:    5.097
  Cycle:     87 Energy:      -643.457299  Gnorm:      0.227450  CPU:    5.159
  Cycle:     88 Energy:      -643.563852  Gnorm:      0.215636  CPU:    5.209
  Cycle:     89 Energy:      -643.657399  Gnorm:      0.232513  CPU:    5.271
  Cycle:     90 Energy:      -643.713830  Gnorm:      0.180591  CPU:    5.321
  Cycle:     91 Energy:      -643.806823  Gnorm:      0.183470  CPU:    5.382
  Cycle:     92 Energy:      -643.875643  Gnorm:      0.143582  CPU:    5.432
  Cycle:     93 Energy:      -643.917522  Gnorm:      0.147307  CPU:    5.494
  Cycle:     94 Energy:      -643.960864  Gnorm:      0.133750  CPU:    5.555
  Cycle:     95 Energy:      -644.003420  Gnorm:      0.123419  CPU:    5.617
  Cycle:     96 Energy:      -644.058714  Gnorm:      0.135881  CPU:    5.678
  Cycle:     97 Energy:      -644.122131  Gnorm:      0.155751  CPU:    5.740
  Cycle:     98 Energy:      -644.167645  Gnorm:      0.161423  CPU:    5.790
  Cycle:     99 Energy:      -644.214590  Gnorm:      0.157691  CPU:    5.851
  Cycle:    100 Energy:      -644.248512  Gnorm:      0.139597  CPU:    5.901
  Cycle:    101 Energy:      -644.286889  Gnorm:      0.135159  CPU:    5.963
  Cycle:    102 Energy:      -644.329434  Gnorm:      0.108874  CPU:    6.024
  Cycle:    103 Energy:      -644.357325  Gnorm:      0.090785  CPU:    6.085
  Cycle:    104 Energy:      -644.376846  Gnorm:      0.081180  CPU:    6.147
  Cycle:    105 Energy:      -644.397652  Gnorm:      0.091052  CPU:    6.208
  Cycle:    106 Energy:      -644.413238  Gnorm:      0.094972  CPU:    6.258
  Cycle:    107 Energy:      -644.438778  Gnorm:      0.096381  CPU:    6.320
  Cycle:    108 Energy:      -644.462791  Gnorm:      0.088276  CPU:    6.381
  Cycle:    109 Energy:      -644.479017  Gnorm:      0.111844  CPU:    6.431
  Cycle:    110 Energy:      -644.489708  Gnorm:      0.070397  CPU:    6.482
  Cycle:    111 Energy:      -644.505727  Gnorm:      0.074415  CPU:    6.543
  Cycle:    112 Energy:      -644.522256  Gnorm:      0.071997  CPU:    6.593
  Cycle:    113 Energy:      -644.531325  Gnorm:      0.072253  CPU:    6.643
  Cycle:    114 Energy:      -644.545654  Gnorm:      0.070939  CPU:    6.705
  Cycle:    115 Energy:      -644.562240  Gnorm:      0.085430  CPU:    6.767
  Cycle:    116 Energy:      -644.586446  Gnorm:      0.104054  CPU:    6.828
  Cycle:    117 Energy:      -644.624997  Gnorm:      0.120806  CPU:    6.890
  Cycle:    118 Energy:      -644.670384  Gnorm:      0.144304  CPU:    6.940
  Cycle:    119 Energy:      -644.721121  Gnorm:      0.223366  CPU:    6.991
  Cycle:    120 Energy:      -644.766648  Gnorm:      0.147366  CPU:    7.041
  Cycle:    121 Energy:      -644.824464  Gnorm:      0.140103  CPU:    7.103
  Cycle:    122 Energy:      -644.877755  Gnorm:      0.127561  CPU:    7.166
  Cycle:    123 Energy:      -644.921254  Gnorm:      0.125226  CPU:    7.228
  Cycle:    124 Energy:      -644.957753  Gnorm:      0.111889  CPU:    7.278
  Cycle:    125 Energy:      -644.993253  Gnorm:      0.110568  CPU:    7.340
  Cycle:    126 Energy:      -645.023696  Gnorm:      0.158600  CPU:    7.391
  Cycle:    127 Energy:      -645.088586  Gnorm:      0.170621  CPU:    7.453
  Cycle:    128 Energy:      -645.196249  Gnorm:      0.220803  CPU:    7.516
  Cycle:    129 Energy:      -645.345144  Gnorm:      0.338127  CPU:    7.578
  Cycle:    130 Energy:      -645.462944  Gnorm:      0.221412  CPU:    7.641
  Cycle:    131 Energy:      -645.540179  Gnorm:      0.161178  CPU:    7.692
  Cycle:    132 Energy:      -645.616561  Gnorm:      0.173968  CPU:    7.755
  Cycle:    133 Energy:      -645.666416  Gnorm:      0.153611  CPU:    7.806
  Cycle:    134 Energy:      -645.720948  Gnorm:      0.148918  CPU:    7.869
  Cycle:    135 Energy:      -645.796468  Gnorm:      0.169948  CPU:    7.932
  Cycle:    136 Energy:      -645.858964  Gnorm:      0.155219  CPU:    7.983
  Cycle:    137 Energy:      -645.900666  Gnorm:      0.132080  CPU:    8.035
  Cycle:    138 Energy:      -645.948266  Gnorm:      0.161712  CPU:    8.097
  Cycle:    139 Energy:      -645.988086  Gnorm:      0.138978  CPU:    8.149
  Cycle:    140 Energy:      -646.013296  Gnorm:      0.121246  CPU:    8.201
  Cycle:    141 Energy:      -646.043295  Gnorm:      0.112280  CPU:    8.264
  Cycle:    142 Energy:      -646.072882  Gnorm:      0.114405  CPU:    8.327
  Cycle:    143 Energy:      -646.101154  Gnorm:      0.110013  CPU:    8.390
  Cycle:    144 Energy:      -646.129691  Gnorm:      0.101057  CPU:    8.452
  Cycle:    145 Energy:      -646.159838  Gnorm:      0.104774  CPU:    8.515
  Cycle:    146 Energy:      -646.185553  Gnorm:      0.119317  CPU:    8.567
  Cycle:    147 Energy:      -646.213834  Gnorm:      0.117029  CPU:    8.620
  Cycle:    148 Energy:      -646.259252  Gnorm:      0.132335  CPU:    8.688
  Cycle:    149 Energy:      -646.305628  Gnorm:      0.177596  CPU:    8.746
  Cycle:    150 Energy:      -646.330225  Gnorm:      0.096038  CPU:    8.797
  Cycle:    151 Energy:      -646.354250  Gnorm:      0.088365  CPU:    8.864
  Cycle:    152 Energy:      -646.369375  Gnorm:      0.082014  CPU:    8.920
  Cycle:    153 Energy:      -646.382487  Gnorm:      0.073512  CPU:    8.989
  Cycle:    154 Energy:      -646.395768  Gnorm:      0.076034  CPU:    9.053
  Cycle:    155 Energy:      -646.406306  Gnorm:      0.062701  CPU:    9.105
  Cycle:    156 Energy:      -646.415714  Gnorm:      0.059368  CPU:    9.169
  Cycle:    157 Energy:      -646.423876  Gnorm:      0.061794  CPU:    9.232
  Cycle:    158 Energy:      -646.433326  Gnorm:      0.051738  CPU:    9.314
  Cycle:    159 Energy:      -646.442922  Gnorm:      0.069730  CPU:    9.410
  Cycle:    160 Energy:      -646.449496  Gnorm:      0.046426  CPU:    9.490
  Cycle:    161 Energy:      -646.455771  Gnorm:      0.055946  CPU:    9.566
  Cycle:    162 Energy:      -646.461730  Gnorm:      0.053017  CPU:    9.641
  Cycle:    163 Energy:      -646.467032  Gnorm:      0.048564  CPU:    9.716
  Cycle:    164 Energy:      -646.472496  Gnorm:      0.055412  CPU:    9.791
  Cycle:    165 Energy:      -646.479820  Gnorm:      0.055983  CPU:    9.884
  Cycle:    166 Energy:      -646.488004  Gnorm:      0.059305  CPU:    9.959
  Cycle:    167 Energy:      -646.496075  Gnorm:      0.066952  CPU:   10.034
  Cycle:    168 Energy:      -646.506618  Gnorm:      0.069302  CPU:   10.126
  Cycle:    169 Energy:      -646.518696  Gnorm:      0.080711  CPU:   10.219
  Cycle:    170 Energy:      -646.527002  Gnorm:      0.063249  CPU:   10.294
  Cycle:    171 Energy:      -646.535784  Gnorm:      0.060397  CPU:   10.370
  Cycle:    172 Energy:      -646.541941  Gnorm:      0.056586  CPU:   10.445
  Cycle:    173 Energy:      -646.549781  Gnorm:      0.049757  CPU:   10.538
  Cycle:    174 Energy:      -646.555188  Gnorm:      0.054640  CPU:   10.613
  Cycle:    175 Energy:      -646.560596  Gnorm:      0.041264  CPU:   10.688
  Cycle:    176 Energy:      -646.564523  Gnorm:      0.045758  CPU:   10.764
  Cycle:    177 Energy:      -646.570335  Gnorm:      0.050972  CPU:   10.856
  Cycle:    178 Energy:      -646.575878  Gnorm:      0.045021  CPU:   10.932
  Cycle:    179 Energy:      -646.582130  Gnorm:      0.066601  CPU:   11.025
  Cycle:    180 Energy:      -646.587656  Gnorm:      0.042523  CPU:   11.101
  Cycle:    181 Energy:      -646.592871  Gnorm:      0.051627  CPU:   11.178
  Cycle:    182 Energy:      -646.598759  Gnorm:      0.047786  CPU:   11.259
  Cycle:    183 Energy:      -646.602723  Gnorm:      0.042107  CPU:   11.337
  Cycle:    184 Energy:      -646.607781  Gnorm:      0.056350  CPU:   11.417
  Cycle:    185 Energy:      -646.614308  Gnorm:      0.052661  CPU:   11.517
  Cycle:    186 Energy:      -646.622303  Gnorm:      0.061528  CPU:   11.612
  Cycle:    187 Energy:      -646.629125  Gnorm:      0.060415  CPU:   11.688
  Cycle:    188 Energy:      -646.639005  Gnorm:      0.066045  CPU:   11.781
  Cycle:    189 Energy:      -646.649348  Gnorm:      0.082839  CPU:   11.856
  Cycle:    190 Energy:      -646.658538  Gnorm:      0.060511  CPU:   11.931
  Cycle:    191 Energy:      -646.665535  Gnorm:      0.049838  CPU:   12.007
  Cycle:    192 Energy:      -646.671949  Gnorm:      0.062859  CPU:   12.082
  Cycle:    193 Energy:      -646.678642  Gnorm:      0.049267  CPU:   12.158
  Cycle:    194 Energy:      -646.684986  Gnorm:      0.057439  CPU:   12.236
  Cycle:    195 Energy:      -646.690943  Gnorm:      0.046074  CPU:   12.312
  Cycle:    196 Energy:      -646.696157  Gnorm:      0.050317  CPU:   12.406
  Cycle:    197 Energy:      -646.702671  Gnorm:      0.063883  CPU:   12.503
  Cycle:    198 Energy:      -646.710412  Gnorm:      0.042858  CPU:   12.597
  Cycle:    199 Energy:      -646.721165  Gnorm:      0.092727  CPU:   12.740
  Cycle:    200 Energy:      -646.729370  Gnorm:      0.041153  CPU:   12.851
  Cycle:    201 Energy:      -646.733135  Gnorm:      0.054971  CPU:   12.945
  Cycle:    202 Energy:      -646.740286  Gnorm:      0.051641  CPU:   13.020
  Cycle:    203 Energy:      -646.746111  Gnorm:      0.041415  CPU:   13.096
  Cycle:    204 Energy:      -646.750846  Gnorm:      0.057214  CPU:   13.172
  Cycle:    205 Energy:      -646.757770  Gnorm:      0.053015  CPU:   13.265
  Cycle:    206 Energy:      -646.764142  Gnorm:      0.055360  CPU:   13.341
  Cycle:    207 Energy:      -646.770137  Gnorm:      0.051546  CPU:   13.416
  Cycle:    208 Energy:      -646.777723  Gnorm:      0.065057  CPU:   13.515
  Cycle:    209 Energy:      -646.787831  Gnorm:      0.070210  CPU:   13.611
  Cycle:    210 Energy:      -646.795240  Gnorm:      0.057260  CPU:   13.689
  Cycle:    211 Energy:      -646.800494  Gnorm:      0.045453  CPU:   13.764
  Cycle:    212 Energy:      -646.805172  Gnorm:      0.052009  CPU:   13.844
  Cycle:    213 Energy:      -646.810515  Gnorm:      0.043183  CPU:   13.920
  Cycle:    214 Energy:      -646.817040  Gnorm:      0.053638  CPU:   14.014
  Cycle:    215 Energy:      -646.821243  Gnorm:      0.041312  CPU:   14.091
  Cycle:    216 Energy:      -646.825716  Gnorm:      0.046448  CPU:   14.170
  Cycle:    217 Energy:      -646.831620  Gnorm:      0.056911  CPU:   14.268
  Cycle:    218 Energy:      -646.837367  Gnorm:      0.039890  CPU:   14.362
  Cycle:    219 Energy:      -646.846104  Gnorm:      0.070153  CPU:   14.500
  Cycle:    220 Energy:      -646.852100  Gnorm:      0.048693  CPU:   14.576
  Cycle:    221 Energy:      -646.855676  Gnorm:      0.042049  CPU:   14.652
  Cycle:    222 Energy:      -646.860848  Gnorm:      0.047810  CPU:   14.727
  Cycle:    223 Energy:      -646.865298  Gnorm:      0.035650  CPU:   14.803
  Cycle:    224 Energy:      -646.868372  Gnorm:      0.037928  CPU:   14.867
  Cycle:    225 Energy:      -646.873045  Gnorm:      0.045681  CPU:   14.920
  Cycle:    226 Energy:      -646.877170  Gnorm:      0.042935  CPU:   14.972
  Cycle:    227 Energy:      -646.880848  Gnorm:      0.035630  CPU:   15.024
  Cycle:    228 Energy:      -646.883957  Gnorm:      0.045291  CPU:   15.088
  Cycle:    229 Energy:      -646.888855  Gnorm:      0.044881  CPU:   15.152
  Cycle:    230 Energy:      -646.892640  Gnorm:      0.043089  CPU:   15.204
  Cycle:    231 Energy:      -646.895803  Gnorm:      0.036814  CPU:   15.257
  Cycle:    232 Energy:      -646.898506  Gnorm:      0.035805  CPU:   15.308
  Cycle:    233 Energy:      -646.901597  Gnorm:      0.040342  CPU:   15.361
  Cycle:    234 Energy:      -646.905220  Gnorm:      0.033542  CPU:   15.414
  Cycle:    235 Energy:      -646.907331  Gnorm:      0.031231  CPU:   15.467
  Cycle:    236 Energy:      -646.909429  Gnorm:      0.033888  CPU:   15.520
  Cycle:    237 Energy:      -646.912545  Gnorm:      0.035286  CPU:   15.576
  Cycle:    238 Energy:      -646.914903  Gnorm:      0.031201  CPU:   15.630
  Cycle:    239 Energy:      -646.917972  Gnorm:      0.040763  CPU:   15.698
  Cycle:    240 Energy:      -646.920474  Gnorm:      0.029273  CPU:   15.750
  Cycle:    241 Energy:      -646.922636  Gnorm:      0.032793  CPU:   15.805
  Cycle:    242 Energy:      -646.925108  Gnorm:      0.030609  CPU:   15.859
  Cycle:    243 Energy:      -646.926726  Gnorm:      0.026422  CPU:   15.915
  Cycle:    244 Energy:      -646.928174  Gnorm:      0.027261  CPU:   15.969
  Cycle:    245 Energy:      -646.930420  Gnorm:      0.031507  CPU:   16.037
  Cycle:    246 Energy:      -646.932229  Gnorm:      0.027395  CPU:   16.090
  Cycle:    247 Energy:      -646.933757  Gnorm:      0.027012  CPU:   16.147
  Cycle:    248 Energy:      -646.935264  Gnorm:      0.028288  CPU:   16.200
  Cycle:    249 Energy:      -646.937015  Gnorm:      0.028746  CPU:   16.256
  Cycle:    250 Energy:      -646.938509  Gnorm:      0.026506  CPU:   16.310
  Cycle:    251 Energy:      -646.939918  Gnorm:      0.024653  CPU:   16.362
  Cycle:    252 Energy:      -646.941121  Gnorm:      0.024650  CPU:   16.414
  Cycle:    253 Energy:      -646.942481  Gnorm:      0.026153  CPU:   16.467
  Cycle:    254 Energy:      -646.943991  Gnorm:      0.022441  CPU:   16.519
  Cycle:    255 Energy:      -646.944911  Gnorm:      0.020297  CPU:   16.573
  Cycle:    256 Energy:      -646.945802  Gnorm:      0.022031  CPU:   16.625
  Cycle:    257 Energy:      -646.947035  Gnorm:      0.023740  CPU:   16.677
  Cycle:    258 Energy:      -646.948130  Gnorm:      0.019913  CPU:   16.729
  Cycle:    259 Energy:      -646.949253  Gnorm:      0.025862  CPU:   16.781
  Cycle:    260 Energy:      -646.950224  Gnorm:      0.019085  CPU:   16.834
  Cycle:    261 Energy:      -646.951153  Gnorm:      0.020879  CPU:   16.886
  Cycle:    262 Energy:      -646.952155  Gnorm:      0.019641  CPU:   16.939
  Cycle:    263 Energy:      -646.952785  Gnorm:      0.016561  CPU:   16.991
  Cycle:    264 Energy:      -646.953434  Gnorm:      0.017851  CPU:   17.043
  Cycle:    265 Energy:      -646.954298  Gnorm:      0.020056  CPU:   17.107
  Cycle:    266 Energy:      -646.955089  Gnorm:      0.017334  CPU:   17.159
  Cycle:    267 Energy:      -646.955684  Gnorm:      0.017767  CPU:   17.211
  Cycle:    268 Energy:      -646.956309  Gnorm:      0.017165  CPU:   17.263
  Cycle:    269 Energy:      -646.956960  Gnorm:      0.018467  CPU:   17.316
  Cycle:    270 Energy:      -646.957515  Gnorm:      0.016415  CPU:   17.368
  Cycle:    271 Energy:      -646.958094  Gnorm:      0.015671  CPU:   17.420
  Cycle:    272 Energy:      -646.958551  Gnorm:      0.015786  CPU:   17.473
  Cycle:    273 Energy:      -646.959120  Gnorm:      0.016065  CPU:   17.527
  Cycle:    274 Energy:      -646.959717  Gnorm:      0.014483  CPU:   17.585
  Cycle:    275 Energy:      -646.960087  Gnorm:      0.012520  CPU:   17.638
  Cycle:    276 Energy:      -646.960459  Gnorm:      0.014117  CPU:   17.691
  Cycle:    277 Energy:      -646.960924  Gnorm:      0.014922  CPU:   17.748
  Cycle:    278 Energy:      -646.961377  Gnorm:      0.012303  CPU:   17.801
  Cycle:    279 Energy:      -646.961796  Gnorm:      0.016599  CPU:   17.854
  Cycle:    280 Energy:      -646.962164  Gnorm:      0.011907  CPU:   17.906
  Cycle:    281 Energy:      -646.962550  Gnorm:      0.012951  CPU:   17.958
  Cycle:    282 Energy:      -646.962928  Gnorm:      0.012587  CPU:   18.010
  Cycle:    283 Energy:      -646.963187  Gnorm:      0.010213  CPU:   18.063
  Cycle:    284 Energy:      -646.963450  Gnorm:      0.011500  CPU:   18.115
  Cycle:    285 Energy:      -646.963787  Gnorm:      0.012251  CPU:   18.167
  Cycle:    286 Energy:      -646.964123  Gnorm:      0.010519  CPU:   18.219
  Cycle:    287 Energy:      -646.964362  Gnorm:      0.011266  CPU:   18.272
  Cycle:    288 Energy:      -646.964606  Gnorm:      0.010819  CPU:   18.324
  Cycle:    289 Energy:      -646.964838  Gnorm:      0.012308  CPU:   18.376
  Cycle:    290 Energy:      -646.965040  Gnorm:      0.010280  CPU:   18.428
  Cycle:    291 Energy:      -646.965267  Gnorm:      0.010155  CPU:   18.492
  Cycle:    292 Energy:      -646.965449  Gnorm:      0.009478  CPU:   18.548
  ** Hessian has required structure
  Cycle:    293 Energy:      -646.967755  Gnorm:      0.006698  CPU:   18.761
  ** Hessian has required structure
  Cycle:    294 Energy:      -646.969744  Gnorm:      0.002549  CPU:   18.859
  ** Hessian has required structure
  Cycle:    295 Energy:      -646.970101  Gnorm:      0.000257  CPU:   18.930
  ** Hessian has required structure


  **** Optimisation achieved ****


  Final enthalpy =    -646.97010201 eV      
  Final Gnorm    =       0.00002957

  Components of enthalpy : 

--------------------------------------------------------------------------------
  Interatomic potentials     =         221.57209171 eV    
  Monopole - monopole (real) =        -507.50147318 eV    
  Monopole - monopole (recip)=        -489.39138776 eV    
  Monopole - monopole (total)=        -996.89286093 eV    
  Pressure*volume            =         128.35066721 eV    
--------------------------------------------------------------------------------
  Total lattice enthalpy     =        -646.97010201 eV    
--------------------------------------------------------------------------------
  Total lattice enthalpy     =          -62422.7250 kJ/(mole unit cells)
--------------------------------------------------------------------------------

  Final fractional coordinates of atoms :

--------------------------------------------------------------------------------
   No.  Atomic        x           y          z          Radius
        Label       (Frac)      (Frac)     (Frac)       (Angs) 
--------------------------------------------------------------------------------
     1  Al    c     0.364088    0.657755    0.583093    0.000000
     2  Al    c     0.062593    0.142173    0.853058    0.000000
     3  Al    c     0.364933    0.600660    0.097364    0.000000
     4  Al    c     0.409232    0.166574    0.747561    0.000000
     5  Al    c     0.768833    0.212751    0.604814    0.000000
     6  Al    c     0.712136    0.673070    0.466788    0.000000
     7  Al    c     0.435546    0.156552    0.242006    0.000000
     8  Al    c     0.731149    0.646946    0.963513    0.000000
     9  Mg    c     0.077266    0.668882    0.859568    0.000000
    10  Mg    c     0.084921    0.147437    0.352183    0.000000
    11  Mg    c     0.050528    0.646246    0.349119    0.000000
    12  Mg    c     0.773901    0.157437    0.117433    0.000000
    13  O     c     0.109681    0.425029    0.620081    0.000000
    14  O     c     0.349345    0.797110    0.850678    0.000000
    15  O     c     0.356461    0.367505    0.377348    0.000000
    16  O     c     0.299208    0.268813    0.962957    0.000000
    17  O     c     0.147245    0.972228    0.629485    0.000000
    18  O     c     0.063265    0.386684    0.089465    0.000000
    19  O     c     0.535235    0.098687    0.535813    0.000000
    20  O     c     0.312564    0.800240    0.292961    0.000000
    21  O     c     0.826074    0.533885    0.737344    0.000000
    22  O     c     0.784990    0.460432    0.331712    0.000000
    23  O     c     0.833646    0.019555    0.427384    0.000000
    24  O     c     0.577624    0.248849    0.006897    0.000000
    25  O     c     0.549652    0.589130    0.687320    0.000000
    26  O     c     0.997881    0.860745    0.084266    0.000000
    27  O     c     0.817181    0.020403    0.835600    0.000000
    28  O     c     0.600890    0.711518    0.169354    0.000000
--------------------------------------------------------------------------------

  Final Cartesian lattice vectors (Angstroms) :

        7.609836   -2.323248   -0.313538
       -0.827069    5.169491    0.170161
       -0.159751    0.237379    5.507681


  Final cell parameters and derivatives :

--------------------------------------------------------------------------------
       a            7.962750 Angstrom     dE/de1(xx)    -0.000035 eV/strain
       b            5.237999 Angstrom     dE/de2(yy)     0.000330 eV/strain
       c            5.515108 Angstrom     dE/de3(zz)     0.000067 eV/strain
       alpha       85.440501 Degrees      dE/de4(yz)    -0.000408 eV/strain
       beta        94.563437 Degrees      dE/de5(xz)     0.001499 eV/strain
       gamma      116.112007 Degrees      dE/de6(xy)    -0.000723 eV/strain
--------------------------------------------------------------------------------

  Primitive cell volume =           205.642027 Angs**3

  Density of cell =      4.595338 g/cm**3

  Non-primitive cell volume =           205.642027 Angs**3


  Final internal derivatives :

--------------------------------------------------------------------------------
   No.  Atomic          a             b             c           Radius
        Label          (eV)          (eV)          (eV)        (eV/Angs)
--------------------------------------------------------------------------------
      1 Al    c       0.000000      0.000000      0.000000      0.000000
      2 Al    c       0.000218     -0.000066      0.000078      0.000000
      3 Al    c       0.000276      0.000017     -0.000059      0.000000
      4 Al    c       0.000032      0.000334     -0.000214      0.000000
      5 Al    c      -0.000285      0.000216     -0.000172      0.000000
      6 Al    c      -0.000098      0.000053      0.000166      0.000000
      7 Al    c       0.000227     -0.000309     -0.000288      0.000000
      8 Al    c       0.000168     -0.000086      0.000024      0.000000
      9 Mg    c       0.000041      0.000133      0.000009      0.000000
     10 Mg    c      -0.000143     -0.000072      0.000039      0.000000
     11 Mg    c       0.000118      0.000020      0.000100      0.000000
     12 Mg    c      -0.000127      0.000056     -0.000006      0.000000
     13 O     c      -0.000112     -0.000068      0.000155      0.000000
     14 O     c       0.000015     -0.000296      0.000346      0.000000
     15 O     c       0.000436     -0.000898     -0.000596      0.000000
     16 O     c      -0.000176     -0.000002      0.000211      0.000000
     17 O     c      -0.000004      0.000240     -0.000002      0.000000
     18 O     c       0.000060     -0.000011     -0.000025      0.000000
     19 O     c       0.000147     -0.000289      0.000476      0.000000
     20 O     c       0.000041      0.000109     -0.000174      0.000000
     21 O     c      -0.000283      0.000209      0.000160      0.000000
     22 O     c       0.000196      0.000154     -0.000015      0.000000
     23 O     c       0.000216      0.000081     -0.000012      0.000000
     24 O     c       0.000245     -0.000000     -0.000144      0.000000
     25 O     c       0.000079     -0.000230     -0.000293      0.000000
     26 O     c      -0.000227      0.000223     -0.000034      0.000000
     27 O     c       0.000068      0.000015     -0.000065      0.000000
     28 O     c      -0.000040      0.000014     -0.000046      0.000000
--------------------------------------------------------------------------------
  Maximum abs         0.000436      0.000898      0.000596      0.000000
--------------------------------------------------------------------------------


  Time to end of optimisation =      19.0020 seconds


  Peak dynamic memory used =       2.03 MB 


  Timing analysis for GULP :

--------------------------------------------------------------------------------
  Task / Subroutine                                          Time (Seconds)
--------------------------------------------------------------------------------
  Calculation of reciprocal space energy and derivatives          0.8114
  Calculation of real space energy and derivatives               18.0311
  Calculation and manipulation of Hessian matrix                  0.0757
  Global summation overhead                                       0.0019
--------------------------------------------------------------------------------
  Total CPU time                                                 19.0021
--------------------------------------------------------------------------------


  Job Finished at 16:05.47 11th June       2024                               

