********************************************************************************
*                       GENERAL UTILITY LATTICE PROGRAM                        *
*                                 Julian Gale                                  *
*                       Curtin Institute for Computation                       *
*                    School of Molecular and Life Sciences                     *
*                    Curtin University, Western Australia                      *
********************************************************************************
* Version = 6.0.0 * Last modified =  12th July 2021                            *
********************************************************************************
*  optimise     - perform optimisation run                                     *
*  conp         - constant pressure calculation                                *
*  nosymmetry   - turn off symmetry after initial structure generation         *
*  conjugate    - use conjugate gradients minimiser                            *
********************************************************************************

  Job Started  at 16:00.12 11th June       2024                               

  Number of CPUs =     1


  Total number of configurations input =      1

********************************************************************************
*  Input for Configuration =   1                                               *
********************************************************************************

  Formula = Al8Mg4O16                                                   

  Number of irreducible atoms/shells =      28


  Total number atoms/shells =      28

  Dimensionality = 3               :  Bulk   



  Cartesian lattice vectors (Angstroms) :

        6.781155   -0.185741   -0.068443
       -0.185671    4.533818    0.008318
       -0.294260    0.034437    6.781781

  Cell parameters (Angstroms/Degrees):

  a =       6.7840    alpha =  89.5030
  b =       4.5376    beta  =  93.0695
  c =       6.7882    gamma =  93.9149

  Initial cell volume =         208.176407 Angs**3

  Temperature of configuration =   0.00     K 

  Pressure of configuration =       100.000 GPa 

  Fractional coordinates of asymmetric unit :

--------------------------------------------------------------------------------
   No.  Atomic       x           y          z         Charge      Occupancy
        Label      (Frac)      (Frac)     (Frac)        (e)         (Frac)  
--------------------------------------------------------------------------------
      1 Al    c    0.077249    0.170404    0.548037     3.00000    1.000000    
      2 Al    c    0.858117 *  0.154307 *  0.922481 *   3.00000    1.000000    
      3 Al    c    0.306026 *  0.153206 *  0.915752 *   3.00000    1.000000    
      4 Al    c    0.644677 *  0.148271 *  0.189188 *   3.00000    1.000000    
      5 Al    c    0.092397 *  0.092397 *  0.537312 *   3.00000    1.000000    
      6 Al    c    0.814853 *  0.814838 *  0.075238 *   3.00000    1.000000    
      7 Al    c    0.814854 *  0.814825 *  0.259776 *   3.00000    1.000000    
      8 Al    c    0.537312 *  0.537312 *  0.537340 *   3.00000    1.000000    
      9 Mg    c    0.087751 *  0.130332 *  0.178065 *   2.00000    1.000000    
     10 Mg    c    0.522199 *  0.220121 *  0.550929 *   2.00000    1.000000    
     11 Mg    c    0.092400 *  0.790105 *  0.537315 *   2.00000    1.000000    
     12 Mg    c    0.092393 *  0.839603 *  0.092404 *   2.00000    1.000000    
     13 O     c    0.948076 *  0.388473 *  0.342366 *  -2.00000    1.000000    
     14 O     c    0.420050 *  0.422730 *  0.322872 *  -2.00000    1.000000    
     15 O     c    0.113474 *  0.476312 *  0.926746 *  -2.00000    1.000000    
     16 O     c    0.667202 *  0.480133 *  0.906569 *  -2.00000    1.000000    
     17 O     c    0.238360 *  0.029226 *  0.696458 *  -2.00000    1.000000    
     18 O     c    0.907952 *  0.280668 *  0.040837 *  -2.00000    1.000000    
     19 O     c    0.400816 *  0.266759 *  0.034601 *  -2.00000    1.000000    
     20 O     c    0.832843 *  0.094339 *  0.696046 *  -2.00000    1.000000    
     21 O     c    0.259769 *  0.814883 *  0.814861 *  -2.00000    1.000000    
     22 O     c    0.537308 *  0.790105 *  0.092411 *  -2.00000    1.000000    
     23 O     c    0.259768 *  0.814871 *  0.109569 *  -2.00000    1.000000    
     24 O     c    0.537312 *  0.092397 *  0.092423 *  -2.00000    1.000000    
     25 O     c    0.537315 *  0.839603 *  0.537326 *  -2.00000    1.000000    
     26 O     c    0.092397 *  0.537312 *  0.092401 *  -2.00000    1.000000    
     27 O     c    0.814855 *  0.814838 *  0.554484 *  -2.00000    1.000000    
     28 O     c    0.259770 *  0.814871 *  0.520153 *  -2.00000    1.000000    
--------------------------------------------------------------------------------



********************************************************************************
*  General input information                                                   *
********************************************************************************

  Species output for all configurations : 

--------------------------------------------------------------------------------
  Species    Type    Atomic    Atomic    Charge       Radii (Angs)     Library
                     Number     Mass       (e)     Cova   Ionic  VDW   Symbol
--------------------------------------------------------------------------------
    Mg       Core       12      24.31   2.000000   1.100  0.000  1.640          
    Al       Core       13      26.98   3.000000   1.350  0.000  2.050          
    O        Core        8      16.00  -2.000000   0.730  0.000  1.360          
--------------------------------------------------------------------------------


  Lattice summation method               =    Ewald          (3-D)
                                         =    Parry          (2-D)
                                         =    Saunders et al (1-D)
  Accuracy factor for lattice sums       =   12.000


  Analytic derivatives to be used

  Time limit = Infinity

  Maximum range for interatomic potentials =    100000.000000 Angstroms

  General interatomic potentials :

--------------------------------------------------------------------------------
Atom  Types   Potential      Parameter       Value         Units   Cutoffs(Ang)
  1     2                                                            Min /  Max 
--------------------------------------------------------------------------------
O    c Mg   c Lennard       Lennard-Jones A  1.5000000    eV*Ang^m  0.000  6.000
                            Lennard-Jones B  0.0000000    eV*Ang^n  
                            Exponent m        12          None
                            Exponent n         6          None
--------------------------------------------------------------------------------
O    c Al   c Lennard       Lennard-Jones A  1.5000000    eV*Ang^m  0.000  6.000
                            Lennard-Jones B  0.0000000    eV*Ang^n  
                            Exponent m        12          None
                            Exponent n         6          None
--------------------------------------------------------------------------------
O    c O    c Lennard       Lennard-Jones A  1.5000000    eV*Ang^m  0.000  6.000
                            Lennard-Jones B  0.0000000    eV*Ang^n  
                            Exponent m        12          None
                            Exponent n         6          None
--------------------------------------------------------------------------------
Mg   c Mg   c Lennard       Lennard-Jones A  1.5000000    eV*Ang^m  0.000  6.000
                            Lennard-Jones B  0.0000000    eV*Ang^n  
                            Exponent m        12          None
                            Exponent n         6          None
--------------------------------------------------------------------------------
Mg   c Al   c Lennard       Lennard-Jones A  1.5000000    eV*Ang^m  0.000  6.000
                            Lennard-Jones B  0.0000000    eV*Ang^n  
                            Exponent m        12          None
                            Exponent n         6          None
--------------------------------------------------------------------------------
Al   c Al   c Lennard       Lennard-Jones A  1.5000000    eV*Ang^m  0.000  6.000
                            Lennard-Jones B  0.0000000    eV*Ang^n  
                            Exponent m        12          None
                            Exponent n         6          None
--------------------------------------------------------------------------------
O    c Mg   c Buckingham    Buckingham A     1428.5000    eV        0.000  7.000
                            Buckingham rho  0.29450000    Ang       
                            Buckingham C     0.0000000    eV*Ang^6  
--------------------------------------------------------------------------------
O    c Al   c Buckingham    Buckingham A     1114.9000    eV        0.000  7.000
                            Buckingham rho  0.31180000    Ang       
                            Buckingham C     0.0000000    eV*Ang^6  
--------------------------------------------------------------------------------
O    c O    c Buckingham    Buckingham A     2023.8000    eV        0.000  7.000
                            Buckingham rho  0.26740000    Ang       
                            Buckingham C     0.0000000    eV*Ang^6  
--------------------------------------------------------------------------------

********************************************************************************
*  Output for configuration   1                                                *
********************************************************************************


  Components of enthalpy : 

--------------------------------------------------------------------------------
  Interatomic potentials     =      146862.85570445 eV    
  Monopole - monopole (real) =          52.13397377 eV    
  Monopole - monopole (recip)=        -428.61963724 eV    
  Monopole - monopole (total)=        -376.48566348 eV    
  Pressure*volume            =         129.93249042 eV    
--------------------------------------------------------------------------------
  Total lattice enthalpy     =      146616.30253140 eV    
--------------------------------------------------------------------------------
  Total lattice enthalpy     =        14146231.9588 kJ/(mole unit cells)
--------------------------------------------------------------------------------


  Number of variables =       87

  Maximum number of calculations  =           850
  Maximum Hessian update interval =            10
  Maximum step size               =   1.000000000
  Maximum parameter tolerance     =   0.000010000
  Maximum function  tolerance     =   0.000010000
  Maximum gradient  tolerance     =   0.001000000
  Maximum gradient  component     =   0.010000000

  Cell parameters to be optimised using strains

  Conjugate gradient optimiser to be used

  Lower half triangular hessian to be used

  Minimiser to switch to RFO
  When gradient norm is less than     0.010000

  Start of bulk optimisation :

  Cycle:      0 Energy:    146616.302531  Gnorm: 267350.602150  CPU:    0.031
  Cycle:      1 Energy:         6.119432  Gnorm:     32.107724  CPU:    0.099
  Cycle:      2 Energy:      -326.808571  Gnorm:     17.389104  CPU:    0.165
  Cycle:      3 Energy:      -454.987940  Gnorm:      8.348982  CPU:    0.209
  Cycle:      4 Energy:      -524.619024  Gnorm:      5.186025  CPU:    0.253
  Cycle:      5 Energy:      -559.786128  Gnorm:      5.768040  CPU:    0.297
  Cycle:      6 Energy:      -579.908649  Gnorm:      4.395012  CPU:    0.334
  Cycle:      7 Energy:      -594.639247  Gnorm:      2.630398  CPU:    0.378
  Cycle:      8 Energy:      -606.038277  Gnorm:      2.210920  CPU:    0.423
  Cycle:      9 Energy:      -612.133535  Gnorm:      1.865186  CPU:    0.469
  Cycle:     10 Energy:      -614.871232  Gnorm:      1.231901  CPU:    0.506
  Cycle:     11 Energy:      -618.528224  Gnorm:      1.351159  CPU:    0.551
  Cycle:     12 Energy:      -622.721413  Gnorm:      1.287484  CPU:    0.596
  Cycle:     13 Energy:      -625.426011  Gnorm:      1.063685  CPU:    0.633
  Cycle:     14 Energy:      -628.280363  Gnorm:      1.014538  CPU:    0.677
  Cycle:     15 Energy:      -629.868066  Gnorm:      0.725909  CPU:    0.715
  Cycle:     16 Energy:      -630.646619  Gnorm:      0.627829  CPU:    0.759
  Cycle:     17 Energy:      -631.367346  Gnorm:      0.507774  CPU:    0.804
  Cycle:     18 Energy:      -632.020628  Gnorm:      0.580847  CPU:    0.849
  Cycle:     19 Energy:      -632.795867  Gnorm:      0.582326  CPU:    0.887
  Cycle:     20 Energy:      -633.422617  Gnorm:      0.565503  CPU:    0.924
  Cycle:     21 Energy:      -633.968307  Gnorm:      0.489594  CPU:    0.969
  Cycle:     22 Energy:      -634.586661  Gnorm:      0.559498  CPU:    1.014
  Cycle:     23 Energy:      -635.638279  Gnorm:      0.792003  CPU:    1.059
  Cycle:     24 Energy:      -636.842921  Gnorm:      0.778652  CPU:    1.096
  Cycle:     25 Energy:      -638.229102  Gnorm:      0.616821  CPU:    1.146
  Cycle:     26 Energy:      -639.235475  Gnorm:      0.746461  CPU:    1.191
  Cycle:     27 Energy:      -640.184003  Gnorm:      0.610640  CPU:    1.229
  Cycle:     28 Energy:      -641.032769  Gnorm:      0.570743  CPU:    1.297
  Cycle:     29 Energy:      -641.573933  Gnorm:      0.528672  CPU:    1.350
  Cycle:     30 Energy:      -641.942469  Gnorm:      0.434328  CPU:    1.407
  Cycle:     31 Energy:      -642.382960  Gnorm:      0.434321  CPU:    1.472
  Cycle:     32 Energy:      -642.833581  Gnorm:      0.392331  CPU:    1.541
  Cycle:     33 Energy:      -643.101861  Gnorm:      0.362958  CPU:    1.593
  Cycle:     34 Energy:      -643.370123  Gnorm:      0.249422  CPU:    1.662
  Cycle:     35 Energy:      -643.594354  Gnorm:      0.209015  CPU:    1.726
  Cycle:     36 Energy:      -643.684940  Gnorm:      0.184112  CPU:    1.783
  Cycle:     37 Energy:      -643.730613  Gnorm:      0.140473  CPU:    1.836
  Cycle:     38 Energy:      -643.787570  Gnorm:      0.124093  CPU:    1.905
  Cycle:     39 Energy:      -643.822980  Gnorm:      0.135654  CPU:    1.958
  Cycle:     40 Energy:      -643.841912  Gnorm:      0.084939  CPU:    2.015
  Cycle:     41 Energy:      -643.866169  Gnorm:      0.080919  CPU:    2.080
  Cycle:     42 Energy:      -643.886435  Gnorm:      0.111684  CPU:    2.137
  Cycle:     43 Energy:      -643.908660  Gnorm:      0.103932  CPU:    2.190
  Cycle:     44 Energy:      -643.945137  Gnorm:      0.111849  CPU:    2.258
  Cycle:     45 Energy:      -643.980755  Gnorm:      0.151969  CPU:    2.312
  Cycle:     46 Energy:      -644.030922  Gnorm:      0.129761  CPU:    2.380
  Cycle:     47 Energy:      -644.082783  Gnorm:      0.165964  CPU:    2.445
  Cycle:     48 Energy:      -644.136270  Gnorm:      0.149032  CPU:    2.502
  Cycle:     49 Energy:      -644.194156  Gnorm:      0.147442  CPU:    2.590
  Cycle:     50 Energy:      -644.220021  Gnorm:      0.109952  CPU:    2.670
  Cycle:     51 Energy:      -644.242200  Gnorm:      0.093949  CPU:    2.751
  Cycle:     52 Energy:      -644.264041  Gnorm:      0.068469  CPU:    2.844
  Cycle:     53 Energy:      -644.280970  Gnorm:      0.069514  CPU:    2.942
  Cycle:     54 Energy:      -644.292268  Gnorm:      0.059322  CPU:    3.006
  Cycle:     55 Energy:      -644.298439  Gnorm:      0.052963  CPU:    3.060
  Cycle:     56 Energy:      -644.308060  Gnorm:      0.056474  CPU:    3.128
  Cycle:     57 Energy:      -644.319757  Gnorm:      0.063901  CPU:    3.193
  Cycle:     58 Energy:      -644.331740  Gnorm:      0.085489  CPU:    3.267
  Cycle:     59 Energy:      -644.343206  Gnorm:      0.072544  CPU:    3.345
  Cycle:     60 Energy:      -644.351961  Gnorm:      0.068237  CPU:    3.424
  Cycle:     61 Energy:      -644.359556  Gnorm:      0.055349  CPU:    3.522
  Cycle:     62 Energy:      -644.368036  Gnorm:      0.050521  CPU:    3.616
  Cycle:     63 Energy:      -644.377597  Gnorm:      0.057067  CPU:    3.714
  Cycle:     64 Energy:      -644.387003  Gnorm:      0.077077  CPU:    3.791
  Cycle:     65 Energy:      -644.405448  Gnorm:      0.095241  CPU:    3.889
  Cycle:     66 Energy:      -644.437493  Gnorm:      0.112155  CPU:    3.983
  Cycle:     67 Energy:      -644.491664  Gnorm:      0.160345  CPU:    4.081
  Cycle:     68 Energy:      -644.535726  Gnorm:      0.144730  CPU:    4.156
  Cycle:     69 Energy:      -644.603091  Gnorm:      0.213064  CPU:    4.251
  Cycle:     70 Energy:      -644.645254  Gnorm:      0.146034  CPU:    4.327
  Cycle:     71 Energy:      -644.720636  Gnorm:      0.188996  CPU:    4.403
  Cycle:     72 Energy:      -644.824596  Gnorm:      0.160236  CPU:    4.496
  Cycle:     73 Energy:      -644.865539  Gnorm:      0.141278  CPU:    4.573
  Cycle:     74 Energy:      -644.921402  Gnorm:      0.154444  CPU:    4.666
  Cycle:     75 Energy:      -645.013248  Gnorm:      0.177324  CPU:    4.760
  Cycle:     76 Energy:      -645.127280  Gnorm:      0.247709  CPU:    4.854
  Cycle:     77 Energy:      -645.232236  Gnorm:      0.242326  CPU:    4.931
  Cycle:     78 Energy:      -645.388042  Gnorm:      0.260886  CPU:    5.025
  Cycle:     79 Energy:      -645.508187  Gnorm:      0.240899  CPU:    5.084
  Cycle:     80 Energy:      -645.568840  Gnorm:      0.176048  CPU:    5.161
  Cycle:     81 Energy:      -645.629116  Gnorm:      0.154720  CPU:    5.256
  Cycle:     82 Energy:      -645.709816  Gnorm:      0.180373  CPU:    5.332
  Cycle:     83 Energy:      -645.765202  Gnorm:      0.136931  CPU:    5.409
  Cycle:     84 Energy:      -645.800364  Gnorm:      0.108823  CPU:    5.503
  Cycle:     85 Energy:      -645.836638  Gnorm:      0.095050  CPU:    5.597
  Cycle:     86 Energy:      -645.862185  Gnorm:      0.106535  CPU:    5.691
  Cycle:     87 Energy:      -645.879870  Gnorm:      0.107270  CPU:    5.768
  Cycle:     88 Energy:      -645.909001  Gnorm:      0.095898  CPU:    5.862
  Cycle:     89 Energy:      -645.950256  Gnorm:      0.127433  CPU:    5.957
  Cycle:     90 Energy:      -645.970347  Gnorm:      0.088260  CPU:    6.033
  Cycle:     91 Energy:      -645.988664  Gnorm:      0.086127  CPU:    6.127
  Cycle:     92 Energy:      -646.010367  Gnorm:      0.077781  CPU:    6.222
  Cycle:     93 Energy:      -646.026745  Gnorm:      0.101509  CPU:    6.299
  Cycle:     94 Energy:      -646.042896  Gnorm:      0.093413  CPU:    6.375
  Cycle:     95 Energy:      -646.083035  Gnorm:      0.128978  CPU:    6.470
  Cycle:     96 Energy:      -646.151623  Gnorm:      0.266727  CPU:    6.565
  Cycle:     97 Energy:      -646.293618  Gnorm:      0.354476  CPU:    6.642
  Cycle:     98 Energy:      -646.452462  Gnorm:      0.307774  CPU:    6.737
  Cycle:     99 Energy:      -646.725106  Gnorm:      0.451301  CPU:    6.833
  Cycle:    100 Energy:      -646.868647  Gnorm:      0.237580  CPU:    6.928
  Cycle:    101 Energy:      -647.095584  Gnorm:      0.319344  CPU:    7.024
  Cycle:    102 Energy:      -647.476003  Gnorm:      0.315877  CPU:    7.119
  Cycle:    103 Energy:      -647.652229  Gnorm:      0.278933  CPU:    7.215
  Cycle:    104 Energy:      -647.773931  Gnorm:      0.280339  CPU:    7.292
  Cycle:    105 Energy:      -647.912377  Gnorm:      0.228555  CPU:    7.388
  Cycle:    106 Energy:      -648.032252  Gnorm:      0.197160  CPU:    7.483
  Cycle:    107 Energy:      -648.110544  Gnorm:      0.234042  CPU:    7.561
  Cycle:    108 Energy:      -648.239925  Gnorm:      0.189684  CPU:    7.657
  Cycle:    109 Energy:      -648.302815  Gnorm:      0.212235  CPU:    7.735
  Cycle:    110 Energy:      -648.335809  Gnorm:      0.134653  CPU:    7.812
  Cycle:    111 Energy:      -648.419049  Gnorm:      0.161771  CPU:    7.909
  Cycle:    112 Energy:      -648.458960  Gnorm:      0.156105  CPU:    7.986
  Cycle:    113 Energy:      -648.520629  Gnorm:      0.148165  CPU:    8.082
  Cycle:    114 Energy:      -648.580717  Gnorm:      0.145446  CPU:    8.178
  Cycle:    115 Energy:      -648.636393  Gnorm:      0.155191  CPU:    8.274
  Cycle:    116 Energy:      -648.693885  Gnorm:      0.184861  CPU:    8.370
  Cycle:    117 Energy:      -648.765902  Gnorm:      0.170490  CPU:    8.448
  Cycle:    118 Energy:      -648.806079  Gnorm:      0.158851  CPU:    8.527
  Cycle:    119 Energy:      -648.850373  Gnorm:      0.141980  CPU:    8.623
  Cycle:    120 Energy:      -648.872096  Gnorm:      0.118863  CPU:    8.701
  Cycle:    121 Energy:      -648.900769  Gnorm:      0.115853  CPU:    8.798
  Cycle:    122 Energy:      -648.928087  Gnorm:      0.119881  CPU:    8.894
  Cycle:    123 Energy:      -648.949779  Gnorm:      0.088047  CPU:    8.972
  Cycle:    124 Energy:      -648.967926  Gnorm:      0.077742  CPU:    9.068
  Cycle:    125 Energy:      -648.987201  Gnorm:      0.083468  CPU:    9.164
  Cycle:    126 Energy:      -649.008734  Gnorm:      0.083867  CPU:    9.242
  Cycle:    127 Energy:      -649.041190  Gnorm:      0.107178  CPU:    9.337
  Cycle:    128 Energy:      -649.060084  Gnorm:      0.119749  CPU:    9.415
  Cycle:    129 Energy:      -649.084829  Gnorm:      0.115089  CPU:    9.510
  Cycle:    130 Energy:      -649.099109  Gnorm:      0.092231  CPU:    9.588
  Cycle:    131 Energy:      -649.112601  Gnorm:      0.083154  CPU:    9.665
  Cycle:    132 Energy:      -649.133031  Gnorm:      0.063655  CPU:    9.742
  Cycle:    133 Energy:      -649.146691  Gnorm:      0.063728  CPU:    9.838
  Cycle:    134 Energy:      -649.157069  Gnorm:      0.069187  CPU:    9.915
  Cycle:    135 Energy:      -649.165319  Gnorm:      0.068801  CPU:    9.993
  Cycle:    136 Energy:      -649.175662  Gnorm:      0.071586  CPU:   10.088
  Cycle:    137 Energy:      -649.184599  Gnorm:      0.076096  CPU:   10.166
  Cycle:    138 Energy:      -649.194988  Gnorm:      0.065281  CPU:   10.262
  Cycle:    139 Energy:      -649.207632  Gnorm:      0.074142  CPU:   10.357
  Cycle:    140 Energy:      -649.217231  Gnorm:      0.057059  CPU:   10.435
  Cycle:    141 Energy:      -649.225072  Gnorm:      0.068176  CPU:   10.512
  Cycle:    142 Energy:      -649.232066  Gnorm:      0.061743  CPU:   10.590
  Cycle:    143 Energy:      -649.239462  Gnorm:      0.056629  CPU:   10.686
  Cycle:    144 Energy:      -649.245137  Gnorm:      0.056885  CPU:   10.763
  Cycle:    145 Energy:      -649.252011  Gnorm:      0.051313  CPU:   10.841
  Cycle:    146 Energy:      -649.260955  Gnorm:      0.052672  CPU:   10.937
  Cycle:    147 Energy:      -649.270114  Gnorm:      0.077025  CPU:   11.032
  Cycle:    148 Energy:      -649.277579  Gnorm:      0.061070  CPU:   11.110
  Cycle:    149 Energy:      -649.286330  Gnorm:      0.069723  CPU:   11.205
  Cycle:    150 Energy:      -649.290661  Gnorm:      0.051033  CPU:   11.283
  Cycle:    151 Energy:      -649.296382  Gnorm:      0.053019  CPU:   11.378
  Cycle:    152 Energy:      -649.305815  Gnorm:      0.048418  CPU:   11.474
  Cycle:    153 Energy:      -649.310903  Gnorm:      0.052593  CPU:   11.552
  Cycle:    154 Energy:      -649.315704  Gnorm:      0.043695  CPU:   11.629
  Cycle:    155 Energy:      -649.321696  Gnorm:      0.043128  CPU:   11.725
  Cycle:    156 Energy:      -649.327405  Gnorm:      0.048430  CPU:   11.803
  Cycle:    157 Energy:      -649.332427  Gnorm:      0.057538  CPU:   11.881
  Cycle:    158 Energy:      -649.337244  Gnorm:      0.052364  CPU:   11.959
  Cycle:    159 Energy:      -649.346827  Gnorm:      0.067656  CPU:   12.054
  Cycle:    160 Energy:      -649.354634  Gnorm:      0.047799  CPU:   12.132
  Cycle:    161 Energy:      -649.358171  Gnorm:      0.048769  CPU:   12.210
  Cycle:    162 Energy:      -649.362261  Gnorm:      0.043483  CPU:   12.287
  Cycle:    163 Energy:      -649.366347  Gnorm:      0.039661  CPU:   12.383
  Cycle:    164 Energy:      -649.369566  Gnorm:      0.042539  CPU:   12.461
  Cycle:    165 Energy:      -649.373166  Gnorm:      0.036325  CPU:   12.538
  Cycle:    166 Energy:      -649.377553  Gnorm:      0.036307  CPU:   12.616
  Cycle:    167 Energy:      -649.382952  Gnorm:      0.037359  CPU:   12.712
  Cycle:    168 Energy:      -649.385990  Gnorm:      0.036703  CPU:   12.789
  Cycle:    169 Energy:      -649.388145  Gnorm:      0.047264  CPU:   12.867
  Cycle:    170 Energy:      -649.390112  Gnorm:      0.034204  CPU:   12.945
  Cycle:    171 Energy:      -649.392713  Gnorm:      0.034657  CPU:   13.022
  Cycle:    172 Energy:      -649.397257  Gnorm:      0.032671  CPU:   13.100
  Cycle:    173 Energy:      -649.400708  Gnorm:      0.030482  CPU:   13.178
  Cycle:    174 Energy:      -649.403743  Gnorm:      0.035318  CPU:   13.273
  Cycle:    175 Energy:      -649.405816  Gnorm:      0.036627  CPU:   13.350
  Cycle:    176 Energy:      -649.408214  Gnorm:      0.035232  CPU:   13.428
  Cycle:    177 Energy:      -649.411030  Gnorm:      0.035288  CPU:   13.523
  Cycle:    178 Energy:      -649.413470  Gnorm:      0.039175  CPU:   13.600
  Cycle:    179 Energy:      -649.418030  Gnorm:      0.050363  CPU:   13.696
  Cycle:    180 Energy:      -649.422028  Gnorm:      0.035846  CPU:   13.773
  Cycle:    181 Energy:      -649.424103  Gnorm:      0.031549  CPU:   13.851
  Cycle:    182 Energy:      -649.426365  Gnorm:      0.030362  CPU:   13.946
  Cycle:    183 Energy:      -649.428408  Gnorm:      0.028650  CPU:   14.023
  Cycle:    184 Energy:      -649.429834  Gnorm:      0.032732  CPU:   14.101
  Cycle:    185 Energy:      -649.431704  Gnorm:      0.025340  CPU:   14.178
  Cycle:    186 Energy:      -649.433826  Gnorm:      0.025228  CPU:   14.273
  Cycle:    187 Energy:      -649.436398  Gnorm:      0.025032  CPU:   14.351
  Cycle:    188 Energy:      -649.438079  Gnorm:      0.021004  CPU:   14.428
  Cycle:    189 Energy:      -649.447745  Gnorm:      0.045194  CPU:   14.559
  Cycle:    190 Energy:      -649.447745  Gnorm:      0.045194  CPU:   14.637
  Cycle:    191 Energy:      -649.450613  Gnorm:      0.028608  CPU:   14.750
  Cycle:    192 Energy:      -649.451860  Gnorm:      0.024051  CPU:   14.827
  Cycle:    193 Energy:      -649.453012  Gnorm:      0.020891  CPU:   14.905
  Cycle:    194 Energy:      -649.454039  Gnorm:      0.025988  CPU:   14.982
  Cycle:    195 Energy:      -649.455124  Gnorm:      0.025440  CPU:   15.059
  Cycle:    196 Energy:      -649.456496  Gnorm:      0.017173  CPU:   15.137
  Cycle:    197 Energy:      -649.457490  Gnorm:      0.025947  CPU:   15.215
  Cycle:    198 Energy:      -649.458517  Gnorm:      0.023140  CPU:   15.292
  Cycle:    199 Energy:      -649.459622  Gnorm:      0.023865  CPU:   15.370
  Cycle:    200 Energy:      -649.460019  Gnorm:      0.013518  CPU:   15.448
  Cycle:    201 Energy:      -649.460779  Gnorm:      0.019984  CPU:   15.544
  Cycle:    202 Energy:      -649.461848  Gnorm:      0.022670  CPU:   15.624
  Cycle:    203 Energy:      -649.462808  Gnorm:      0.022462  CPU:   15.703
  Cycle:    204 Energy:      -649.463841  Gnorm:      0.017903  CPU:   15.780
  Cycle:    205 Energy:      -649.464559  Gnorm:      0.015659  CPU:   15.859
  Cycle:    206 Energy:      -649.465071  Gnorm:      0.022281  CPU:   15.944
  Cycle:    207 Energy:      -649.466501  Gnorm:      0.027630  CPU:   16.021
  Cycle:    208 Energy:      -649.468461  Gnorm:      0.028950  CPU:   16.101
  Cycle:    209 Energy:      -649.470398  Gnorm:      0.038987  CPU:   16.182
  Cycle:    210 Energy:      -649.471531  Gnorm:      0.019478  CPU:   16.260
  Cycle:    211 Energy:      -649.472160  Gnorm:      0.015871  CPU:   16.338
  Cycle:    212 Energy:      -649.472666  Gnorm:      0.018099  CPU:   16.418
  Cycle:    213 Energy:      -649.473390  Gnorm:      0.017855  CPU:   16.496
  Cycle:    214 Energy:      -649.474209  Gnorm:      0.017476  CPU:   16.574
  Cycle:    215 Energy:      -649.475074  Gnorm:      0.012252  CPU:   16.652
  Cycle:    216 Energy:      -649.475488  Gnorm:      0.012430  CPU:   16.729
  Cycle:    217 Energy:      -649.475940  Gnorm:      0.018440  CPU:   16.807
  Cycle:    218 Energy:      -649.476542  Gnorm:      0.018396  CPU:   16.884
  Cycle:    219 Energy:      -649.477361  Gnorm:      0.022286  CPU:   16.962
  Cycle:    220 Energy:      -649.477694  Gnorm:      0.011848  CPU:   17.039
  Cycle:    221 Energy:      -649.478356  Gnorm:      0.016002  CPU:   17.135
  Cycle:    222 Energy:      -649.478712  Gnorm:      0.012690  CPU:   17.212
  Cycle:    223 Energy:      -649.479028  Gnorm:      0.012006  CPU:   17.290
  Cycle:    224 Energy:      -649.479485  Gnorm:      0.014417  CPU:   17.371
  Cycle:    225 Energy:      -649.480078  Gnorm:      0.017521  CPU:   17.467
  Cycle:    226 Energy:      -649.480501  Gnorm:      0.015049  CPU:   17.544
  Cycle:    227 Energy:      -649.480923  Gnorm:      0.013421  CPU:   17.622
  Cycle:    228 Energy:      -649.481412  Gnorm:      0.016214  CPU:   17.700
  Cycle:    229 Energy:      -649.482063  Gnorm:      0.020727  CPU:   17.777
  Cycle:    230 Energy:      -649.482564  Gnorm:      0.015501  CPU:   17.855
  Cycle:    231 Energy:      -649.482962  Gnorm:      0.011846  CPU:   17.933
  Cycle:    232 Energy:      -649.483263  Gnorm:      0.013785  CPU:   18.011
  Cycle:    233 Energy:      -649.483578  Gnorm:      0.014205  CPU:   18.088
  Cycle:    234 Energy:      -649.484203  Gnorm:      0.011999  CPU:   18.187
  Cycle:    235 Energy:      -649.484572  Gnorm:      0.009533  CPU:   18.265
  ** Hessian has required structure
  Cycle:    236 Energy:      -649.490265  Gnorm:      0.006922  CPU:   18.534
  ** Hessian has required structure
  Cycle:    237 Energy:      -649.495171  Gnorm:      0.003991  CPU:   18.666
  ** Hessian has required structure
  Cycle:    238 Energy:      -649.497291  Gnorm:      0.002532  CPU:   18.781
  ** Hessian has required structure
  Cycle:    239 Energy:      -649.497331  Gnorm:      0.000214  CPU:   18.896
  ** Hessian has required structure


  **** Optimisation achieved ****


  Final enthalpy =    -649.49733172 eV      
  Final Gnorm    =       0.00007757

  Components of enthalpy : 

--------------------------------------------------------------------------------
  Interatomic potentials     =         216.40493156 eV    
  Monopole - monopole (real) =        -499.56855645 eV    
  Monopole - monopole (recip)=        -492.35509960 eV    
  Monopole - monopole (total)=        -991.92365605 eV    
  Pressure*volume            =         126.02139276 eV    
--------------------------------------------------------------------------------
  Total lattice enthalpy     =        -649.49733172 eV    
--------------------------------------------------------------------------------
  Total lattice enthalpy     =          -62666.5640 kJ/(mole unit cells)
--------------------------------------------------------------------------------

  Final fractional coordinates of atoms :

--------------------------------------------------------------------------------
   No.  Atomic        x           y          z          Radius
        Label       (Frac)      (Frac)     (Frac)       (Angs) 
--------------------------------------------------------------------------------
     1  Al    c     0.077249    0.170404    0.548037    0.000000
     2  Al    c     0.928259    0.095075    0.889740    0.000000
     3  Al    c     0.425117    0.094504    0.908889    0.000000
     4  Al    c     0.729573    0.278599    0.201364    0.000000
     5  Al    c     0.228478    0.761213    0.238366    0.000000
     6  Al    c     0.421409    0.594572    0.915781    0.000000
     7  Al    c     0.729306    0.776336    0.208851    0.000000
     8  Al    c     0.577641    0.426776    0.559395    0.000000
     9  Mg    c     0.227687    0.264601    0.221253    0.000000
    10  Mg    c     0.578391    0.926937    0.559412    0.000000
    11  Mg    c     0.077383    0.664174    0.573645    0.000000
    12  Mg    c     0.918491    0.600760    0.882913    0.000000
    13  O     c     0.750698    0.220521    0.423619    0.000000
    14  O     c     0.484666    0.016592    0.180446    0.000000
    15  O     c     0.900322    0.364458    0.690963    0.000000
    16  O     c     0.669650    0.322640    0.953873    0.000000
    17  O     c     0.401674    0.156897    0.682179    0.000000
    18  O     c     0.946756    0.028017    0.157507    0.000000
    19  O     c     0.199379    0.325967    0.942215    0.000000
    20  O     c     0.942416    0.919664    0.696137    0.000000
    21  O     c     0.438919    0.625898    0.697749    0.000000
    22  O     c     0.482799    0.542346    0.165978    0.000000
    23  O     c     0.206496    0.840122    0.958113    0.000000
    24  O     c     0.667737    0.852322    0.937194    0.000000
    25  O     c     0.722451    0.691835    0.430146    0.000000
    26  O     c     0.954443    0.547032    0.174099    0.000000
    27  O     c     0.211424    0.951711    0.420481    0.000000
    28  O     c     0.248879    0.453330    0.428504    0.000000
--------------------------------------------------------------------------------

  Final Cartesian lattice vectors (Angstroms) :

        5.196727   -0.021619   -0.231793
       -0.007629    5.208173    0.419682
       -0.359059    0.637181    7.527311


  Final cell parameters and derivatives :

--------------------------------------------------------------------------------
       a            5.201939 Angstrom     dE/de1(xx)     0.000316 eV/strain
       b            5.225060 Angstrom     dE/de2(yy)     0.000372 eV/strain
       c            7.562760 Angstrom     dE/de3(zz)    -0.000560 eV/strain
       alpha       80.561200 Degrees      dE/de4(yz)    -0.002981 eV/strain
       beta        95.286156 Degrees      dE/de5(xz)    -0.000009 eV/strain
       gamma       90.525995 Degrees      dE/de6(xy)    -0.001260 eV/strain
--------------------------------------------------------------------------------

  Primitive cell volume =           201.910090 Angs**3

  Density of cell =      4.680274 g/cm**3

  Non-primitive cell volume =           201.910090 Angs**3


  Final internal derivatives :

--------------------------------------------------------------------------------
   No.  Atomic          a             b             c           Radius
        Label          (eV)          (eV)          (eV)        (eV/Angs)
--------------------------------------------------------------------------------
      1 Al    c       0.000000      0.000000      0.000000      0.000000
      2 Al    c      -0.000243     -0.000031      0.000803      0.000000
      3 Al    c      -0.000175     -0.000240     -0.001456      0.000000
      4 Al    c      -0.000054     -0.000005     -0.000652      0.000000
      5 Al    c      -0.000286     -0.001682      0.002634      0.000000
      6 Al    c      -0.000137      0.000008     -0.001130      0.000000
      7 Al    c      -0.000104     -0.000238     -0.001233      0.000000
      8 Al    c      -0.000220     -0.000176     -0.000256      0.000000
      9 Mg    c      -0.000268     -0.000754      0.001277      0.000000
     10 Mg    c       0.000219      0.000229     -0.000225      0.000000
     11 Mg    c      -0.000022     -0.000260      0.000903      0.000000
     12 Mg    c      -0.000202      0.000124      0.001128      0.000000
     13 O     c       0.000046      0.000041      0.000516      0.000000
     14 O     c       0.000458     -0.000068     -0.000003      0.000000
     15 O     c      -0.000025      0.000390      0.000035      0.000000
     16 O     c       0.000052      0.000099      0.000136      0.000000
     17 O     c      -0.000181     -0.000092      0.000449      0.000000
     18 O     c      -0.000391      0.000180     -0.000102      0.000000
     19 O     c       0.000015      0.000004     -0.000309      0.000000
     20 O     c       0.000278     -0.000373      0.000302      0.000000
     21 O     c      -0.000190      0.000181      0.000489      0.000000
     22 O     c       0.000476      0.000306     -0.000089      0.000000
     23 O     c       0.000035     -0.000196     -0.000515      0.000000
     24 O     c       0.000107      0.000016      0.000037      0.000000
     25 O     c      -0.000095      0.000224      0.000270      0.000000
     26 O     c      -0.000232      0.000725     -0.000207      0.000000
     27 O     c       0.000632     -0.000386     -0.001879      0.000000
     28 O     c       0.000506      0.001790     -0.001705      0.000000
--------------------------------------------------------------------------------
  Maximum abs         0.000632      0.001790      0.002634      0.000000
--------------------------------------------------------------------------------


  Time to end of optimisation =      18.9923 seconds


  Peak dynamic memory used =       2.03 MB 


  Timing analysis for GULP :

--------------------------------------------------------------------------------
  Task / Subroutine                                          Time (Seconds)
--------------------------------------------------------------------------------
  Calculation of reciprocal space energy and derivatives          0.6985
  Calculation of real space energy and derivatives               18.1387
  Calculation and manipulation of Hessian matrix                  0.0940
  Global summation overhead                                       0.0014
--------------------------------------------------------------------------------
  Total CPU time                                                 18.9924
--------------------------------------------------------------------------------


  Job Finished at 16:00.31 11th June       2024                               

