********************************************************************************
*                       GENERAL UTILITY LATTICE PROGRAM                        *
*                                 Julian Gale                                  *
*                       Curtin Institute for Computation                       *
*                    School of Molecular and Life Sciences                     *
*                    Curtin University, Western Australia                      *
********************************************************************************
* Version = 6.0.0 * Last modified =  12th July 2021                            *
********************************************************************************
*  optimise     - perform optimisation run                                     *
*  conp         - constant pressure calculation                                *
*  nosymmetry   - turn off symmetry after initial structure generation         *
*  conjugate    - use conjugate gradients minimiser                            *
********************************************************************************

  Job Started  at 15:56.24 11th June       2024                               

  Number of CPUs =     1


  Total number of configurations input =      1

********************************************************************************
*  Input for Configuration =   1                                               *
********************************************************************************

  Formula = Al8Mg4O16                                                   

  Number of irreducible atoms/shells =      28


  Total number atoms/shells =      28

  Dimensionality = 3               :  Bulk   



  Cartesian lattice vectors (Angstroms) :

        6.217752   -0.321902    0.080119
       -0.330311    5.348267    0.210342
        0.542306    0.184654    6.295786

  Cell parameters (Angstroms/Degrees):

  a =       6.2266    alpha =  86.3931
  b =       5.3626    beta  =  84.4355
  c =       6.3218    gamma =  96.4631

  Initial cell volume =         208.176407 Angs**3

  Temperature of configuration =   0.00     K 

  Pressure of configuration =       100.000 GPa 

  Fractional coordinates of asymmetric unit :

--------------------------------------------------------------------------------
   No.  Atomic       x           y          z         Charge      Occupancy
        Label      (Frac)      (Frac)     (Frac)        (e)         (Frac)  
--------------------------------------------------------------------------------
      1 Al    c    0.415007    0.638847    0.938874     3.00000    1.000000    
      2 Al    c    0.283734 *  0.010781 *  0.704629 *   3.00000    1.000000    
      3 Al    c    0.562932 *  0.403200 *  0.382660 *   3.00000    1.000000    
      4 Al    c    0.066139 *  0.899992 *  0.382660 *   3.00000    1.000000    
      5 Al    c    0.197413 *  0.534474 *  0.616906 *   3.00000    1.000000    
      6 Al    c    0.748464 *  0.967511 *  0.926902 *   3.00000    1.000000    
      7 Al    c    0.959918 *  0.918540 *  0.601970 *   3.00000    1.000000    
      8 Al    c    0.873203 *  0.705779 *  0.093847 *   3.00000    1.000000    
      9 Mg    c    0.398578 *  0.182236 *  0.096361 *   2.00000    1.000000    
     10 Mg    c    0.579361 *  0.859812 *  0.231587 *   2.00000    1.000000    
     11 Mg    c    0.082568 *  0.363019 *  0.231587 *   2.00000    1.000000    
     12 Mg    c    0.743428 *  0.473072 *  0.769141 *   2.00000    1.000000    
     13 O     c    0.502552 *  0.122437 *  0.441460 *  -2.00000    1.000000    
     14 O     c    0.475388 *  0.919610 *  0.880074 *  -2.00000    1.000000    
     15 O     c    0.366011 *  0.398661 *  0.764929 *  -2.00000    1.000000    
     16 O     c    0.005759 *  0.619230 *  0.441460 *  -2.00000    1.000000    
     17 O     c    0.188790 *  0.717041 *  0.906090 *  -2.00000    1.000000    
     18 O     c    0.144143 *  0.091572 *  0.052185 *  -2.00000    1.000000    
     19 O     c    0.292356 *  0.821799 *  0.415445 *  -2.00000    1.000000    
     20 O     c    0.337004 *  0.453682 *  0.275763 *  -2.00000    1.000000    
     21 O     c    0.115136 *  0.146594 *  0.556604 *  -2.00000    1.000000    
     22 O     c    0.962609 *  0.849732 *  0.795360 *  -2.00000    1.000000    
     23 O     c    0.634791 *  0.514812 *  0.307034 *  -2.00000    1.000000    
     24 O     c    0.943864 *  0.012590 *  0.388961 *  -2.00000    1.000000    
     25 O     c    0.743690 *  0.163528 *  0.136545 *  -2.00000    1.000000    
     26 O     c    0.652006 *  0.654404 *  0.565032 *  -2.00000    1.000000    
     27 O     c    0.853043 *  0.408767 *  0.445388 *  -2.00000    1.000000    
     28 O     c    0.768478 *  0.186305 *  0.609740 *  -2.00000    1.000000    
--------------------------------------------------------------------------------



********************************************************************************
*  General input information                                                   *
********************************************************************************

  Species output for all configurations : 

--------------------------------------------------------------------------------
  Species    Type    Atomic    Atomic    Charge       Radii (Angs)     Library
                     Number     Mass       (e)     Cova   Ionic  VDW   Symbol
--------------------------------------------------------------------------------
    Mg       Core       12      24.31   2.000000   1.100  0.000  1.640          
    Al       Core       13      26.98   3.000000   1.350  0.000  2.050          
    O        Core        8      16.00  -2.000000   0.730  0.000  1.360          
--------------------------------------------------------------------------------


  Lattice summation method               =    Ewald          (3-D)
                                         =    Parry          (2-D)
                                         =    Saunders et al (1-D)
  Accuracy factor for lattice sums       =   12.000


  Analytic derivatives to be used

  Time limit = Infinity

  Maximum range for interatomic potentials =    100000.000000 Angstroms

  General interatomic potentials :

--------------------------------------------------------------------------------
Atom  Types   Potential      Parameter       Value         Units   Cutoffs(Ang)
  1     2                                                            Min /  Max 
--------------------------------------------------------------------------------
O    c Mg   c Lennard       Lennard-Jones A  1.5000000    eV*Ang^m  0.000  6.000
                            Lennard-Jones B  0.0000000    eV*Ang^n  
                            Exponent m        12          None
                            Exponent n         6          None
--------------------------------------------------------------------------------
O    c Al   c Lennard       Lennard-Jones A  1.5000000    eV*Ang^m  0.000  6.000
                            Lennard-Jones B  0.0000000    eV*Ang^n  
                            Exponent m        12          None
                            Exponent n         6          None
--------------------------------------------------------------------------------
O    c O    c Lennard       Lennard-Jones A  1.5000000    eV*Ang^m  0.000  6.000
                            Lennard-Jones B  0.0000000    eV*Ang^n  
                            Exponent m        12          None
                            Exponent n         6          None
--------------------------------------------------------------------------------
Mg   c Mg   c Lennard       Lennard-Jones A  1.5000000    eV*Ang^m  0.000  6.000
                            Lennard-Jones B  0.0000000    eV*Ang^n  
                            Exponent m        12          None
                            Exponent n         6          None
--------------------------------------------------------------------------------
Mg   c Al   c Lennard       Lennard-Jones A  1.5000000    eV*Ang^m  0.000  6.000
                            Lennard-Jones B  0.0000000    eV*Ang^n  
                            Exponent m        12          None
                            Exponent n         6          None
--------------------------------------------------------------------------------
Al   c Al   c Lennard       Lennard-Jones A  1.5000000    eV*Ang^m  0.000  6.000
                            Lennard-Jones B  0.0000000    eV*Ang^n  
                            Exponent m        12          None
                            Exponent n         6          None
--------------------------------------------------------------------------------
O    c Mg   c Buckingham    Buckingham A     1428.5000    eV        0.000  7.000
                            Buckingham rho  0.29450000    Ang       
                            Buckingham C     0.0000000    eV*Ang^6  
--------------------------------------------------------------------------------
O    c Al   c Buckingham    Buckingham A     1114.9000    eV        0.000  7.000
                            Buckingham rho  0.31180000    Ang       
                            Buckingham C     0.0000000    eV*Ang^6  
--------------------------------------------------------------------------------
O    c O    c Buckingham    Buckingham A     2023.8000    eV        0.000  7.000
                            Buckingham rho  0.26740000    Ang       
                            Buckingham C     0.0000000    eV*Ang^6  
--------------------------------------------------------------------------------

********************************************************************************
*  Output for configuration   1                                                *
********************************************************************************


  Components of enthalpy : 

--------------------------------------------------------------------------------
  Interatomic potentials     =         398.90171636 eV    
  Monopole - monopole (real) =        -434.59317593 eV    
  Monopole - monopole (recip)=        -467.21778757 eV    
  Monopole - monopole (total)=        -901.81096350 eV    
  Pressure*volume            =         129.93249043 eV    
--------------------------------------------------------------------------------
  Total lattice enthalpy     =        -372.97675671 eV    
--------------------------------------------------------------------------------
  Total lattice enthalpy     =          -35986.5556 kJ/(mole unit cells)
--------------------------------------------------------------------------------


  Number of variables =       87

  Maximum number of calculations  =           850
  Maximum Hessian update interval =            10
  Maximum step size               =   1.000000000
  Maximum parameter tolerance     =   0.000010000
  Maximum function  tolerance     =   0.000010000
  Maximum gradient  tolerance     =   0.001000000
  Maximum gradient  component     =   0.010000000

  Cell parameters to be optimised using strains

  Conjugate gradient optimiser to be used

  Lower half triangular hessian to be used

  Minimiser to switch to RFO
  When gradient norm is less than     0.010000

  Start of bulk optimisation :

  Cycle:      0 Energy:      -372.976757  Gnorm:     43.212173  CPU:    0.049
  Cycle:      1 Energy:      -496.746319  Gnorm:     10.291568  CPU:    0.175
  Cycle:      2 Energy:      -559.767845  Gnorm:      4.606672  CPU:    0.246
  Cycle:      3 Energy:      -588.480596  Gnorm:      3.523218  CPU:    0.339
  Cycle:      4 Energy:      -601.774128  Gnorm:      2.100192  CPU:    0.426
  Cycle:      5 Energy:      -611.561850  Gnorm:      1.606034  CPU:    0.518
  Cycle:      6 Energy:      -617.726246  Gnorm:      1.485724  CPU:    0.606
  Cycle:      7 Energy:      -622.127824  Gnorm:      1.050599  CPU:    0.698
  Cycle:      8 Energy:      -624.178140  Gnorm:      0.969437  CPU:    0.787
  Cycle:      9 Energy:      -626.602067  Gnorm:      1.000375  CPU:    0.879
  Cycle:     10 Energy:      -627.873725  Gnorm:      0.758526  CPU:    0.951
  Cycle:     11 Energy:      -629.049805  Gnorm:      0.773910  CPU:    1.043
  Cycle:     12 Energy:      -631.480816  Gnorm:      0.882385  CPU:    1.131
  Cycle:     13 Energy:      -633.373357  Gnorm:      0.865911  CPU:    1.207
  Cycle:     14 Energy:      -634.452253  Gnorm:      0.688269  CPU:    1.279
  Cycle:     15 Energy:      -635.345330  Gnorm:      0.617691  CPU:    1.371
  Cycle:     16 Energy:      -636.016747  Gnorm:      0.538976  CPU:    1.459
  Cycle:     17 Energy:      -636.635765  Gnorm:      0.509244  CPU:    1.550
  Cycle:     18 Energy:      -637.296890  Gnorm:      0.473160  CPU:    1.637
  Cycle:     19 Energy:      -637.712628  Gnorm:      0.409729  CPU:    1.712
  Cycle:     20 Energy:      -637.902947  Gnorm:      0.346149  CPU:    1.783
  Cycle:     21 Energy:      -638.202461  Gnorm:      0.279744  CPU:    1.875
  Cycle:     22 Energy:      -638.331804  Gnorm:      0.268088  CPU:    1.945
  Cycle:     23 Energy:      -638.469547  Gnorm:      0.254117  CPU:    2.038
  Cycle:     24 Energy:      -638.706374  Gnorm:      0.262764  CPU:    2.125
  Cycle:     25 Energy:      -638.944681  Gnorm:      0.267138  CPU:    2.217
  Cycle:     26 Energy:      -639.082476  Gnorm:      0.281963  CPU:    2.288
  Cycle:     27 Energy:      -639.193867  Gnorm:      0.220687  CPU:    2.359
  Cycle:     28 Energy:      -639.315810  Gnorm:      0.220968  CPU:    2.450
  Cycle:     29 Energy:      -639.398029  Gnorm:      0.182189  CPU:    2.525
  Cycle:     30 Energy:      -639.431823  Gnorm:      0.142500  CPU:    2.596
  Cycle:     31 Energy:      -639.484544  Gnorm:      0.126293  CPU:    2.687
  Cycle:     32 Energy:      -639.513328  Gnorm:      0.138254  CPU:    2.758
  Cycle:     33 Energy:      -639.547590  Gnorm:      0.110119  CPU:    2.850
  Cycle:     34 Energy:      -639.578735  Gnorm:      0.100190  CPU:    2.937
  Cycle:     35 Energy:      -639.609883  Gnorm:      0.092806  CPU:    3.030
  Cycle:     36 Energy:      -639.634161  Gnorm:      0.085224  CPU:    3.116
  Cycle:     37 Energy:      -639.659959  Gnorm:      0.101280  CPU:    3.208
  Cycle:     38 Energy:      -639.682908  Gnorm:      0.129093  CPU:    3.278
  Cycle:     39 Energy:      -639.718056  Gnorm:      0.132711  CPU:    3.372
  Cycle:     40 Energy:      -639.738174  Gnorm:      0.099292  CPU:    3.443
  Cycle:     41 Energy:      -639.751986  Gnorm:      0.076817  CPU:    3.514
  Cycle:     42 Energy:      -639.765474  Gnorm:      0.064491  CPU:    3.589
  Cycle:     43 Energy:      -639.776996  Gnorm:      0.063035  CPU:    3.681
  Cycle:     44 Energy:      -639.787328  Gnorm:      0.075338  CPU:    3.751
  Cycle:     45 Energy:      -639.798101  Gnorm:      0.073866  CPU:    3.823
  Cycle:     46 Energy:      -639.813830  Gnorm:      0.077785  CPU:    3.914
  Cycle:     47 Energy:      -639.827977  Gnorm:      0.090127  CPU:    3.989
  Cycle:     48 Energy:      -639.840237  Gnorm:      0.085182  CPU:    4.060
  Cycle:     49 Energy:      -639.864106  Gnorm:      0.093071  CPU:    4.152
  Cycle:     50 Energy:      -639.881618  Gnorm:      0.086972  CPU:    4.223
  Cycle:     51 Energy:      -639.893907  Gnorm:      0.080701  CPU:    4.294
  Cycle:     52 Energy:      -639.906529  Gnorm:      0.076468  CPU:    4.385
  Cycle:     53 Energy:      -639.919176  Gnorm:      0.075234  CPU:    4.477
  Cycle:     54 Energy:      -639.928576  Gnorm:      0.072245  CPU:    4.547
  Cycle:     55 Energy:      -639.941076  Gnorm:      0.062992  CPU:    4.639
  Cycle:     56 Energy:      -639.955889  Gnorm:      0.063494  CPU:    4.726
  Cycle:     57 Energy:      -639.974638  Gnorm:      0.085163  CPU:    4.802
  Cycle:     58 Energy:      -639.996689  Gnorm:      0.120012  CPU:    4.873
  Cycle:     59 Energy:      -640.034664  Gnorm:      0.196180  CPU:    4.964
  Cycle:     60 Energy:      -640.060958  Gnorm:      0.097234  CPU:    5.035
  Cycle:     61 Energy:      -640.085647  Gnorm:      0.090204  CPU:    5.127
  Cycle:     62 Energy:      -640.108830  Gnorm:      0.078847  CPU:    5.213
  Cycle:     63 Energy:      -640.125797  Gnorm:      0.087508  CPU:    5.305
  Cycle:     64 Energy:      -640.140243  Gnorm:      0.091314  CPU:    5.376
  Cycle:     65 Energy:      -640.163349  Gnorm:      0.096526  CPU:    5.468
  Cycle:     66 Energy:      -640.188247  Gnorm:      0.121929  CPU:    5.555
  Cycle:     67 Energy:      -640.217108  Gnorm:      0.141915  CPU:    5.630
  Cycle:     68 Energy:      -640.268925  Gnorm:      0.168258  CPU:    5.717
  Cycle:     69 Energy:      -640.348904  Gnorm:      0.176117  CPU:    5.808
  Cycle:     70 Energy:      -640.425413  Gnorm:      0.182495  CPU:    5.895
  Cycle:     71 Energy:      -640.465946  Gnorm:      0.134126  CPU:    5.970
  Cycle:     72 Energy:      -640.494556  Gnorm:      0.096427  CPU:    6.040
  Cycle:     73 Energy:      -640.518997  Gnorm:      0.086118  CPU:    6.132
  Cycle:     74 Energy:      -640.535593  Gnorm:      0.092850  CPU:    6.202
  Cycle:     75 Energy:      -640.552158  Gnorm:      0.088116  CPU:    6.273
  Cycle:     76 Energy:      -640.574190  Gnorm:      0.074106  CPU:    6.364
  Cycle:     77 Energy:      -640.593710  Gnorm:      0.070985  CPU:    6.451
  Cycle:     78 Energy:      -640.605574  Gnorm:      0.096987  CPU:    6.522
  Cycle:     79 Energy:      -640.621728  Gnorm:      0.089613  CPU:    6.609
  Cycle:     80 Energy:      -640.631742  Gnorm:      0.066991  CPU:    6.679
  Cycle:     81 Energy:      -640.637896  Gnorm:      0.058683  CPU:    6.750
  Cycle:     82 Energy:      -640.647955  Gnorm:      0.053073  CPU:    6.837
  Cycle:     83 Energy:      -640.657900  Gnorm:      0.054100  CPU:    6.924
  Cycle:     84 Energy:      -640.666746  Gnorm:      0.054608  CPU:    6.995
  Cycle:     85 Energy:      -640.672260  Gnorm:      0.052810  CPU:    7.066
  Cycle:     86 Energy:      -640.678010  Gnorm:      0.045519  CPU:    7.152
  Cycle:     87 Energy:      -640.684203  Gnorm:      0.049135  CPU:    7.239
  Cycle:     88 Energy:      -640.692122  Gnorm:      0.056090  CPU:    7.326
  Cycle:     89 Energy:      -640.696938  Gnorm:      0.061434  CPU:    7.397
  Cycle:     90 Energy:      -640.700323  Gnorm:      0.044232  CPU:    7.467
  Cycle:     91 Energy:      -640.704907  Gnorm:      0.036769  CPU:    7.538
  Cycle:     92 Energy:      -640.708024  Gnorm:      0.030782  CPU:    7.609
  Cycle:     93 Energy:      -640.710515  Gnorm:      0.032588  CPU:    7.679
  Cycle:     94 Energy:      -640.712486  Gnorm:      0.031793  CPU:    7.750
  Cycle:     95 Energy:      -640.715002  Gnorm:      0.029256  CPU:    7.820
  Cycle:     96 Energy:      -640.717302  Gnorm:      0.027386  CPU:    7.907
  Cycle:     97 Energy:      -640.718583  Gnorm:      0.028865  CPU:    7.977
  Cycle:     98 Energy:      -640.719958  Gnorm:      0.022817  CPU:    8.048
  Cycle:     99 Energy:      -640.721467  Gnorm:      0.025829  CPU:    8.118
  Cycle:    100 Energy:      -640.722659  Gnorm:      0.020171  CPU:    8.189
  Cycle:    101 Energy:      -640.723636  Gnorm:      0.023395  CPU:    8.259
  Cycle:    102 Energy:      -640.724475  Gnorm:      0.022302  CPU:    8.330
  Cycle:    103 Energy:      -640.725780  Gnorm:      0.020449  CPU:    8.400
  Cycle:    104 Energy:      -640.726954  Gnorm:      0.020388  CPU:    8.471
  Cycle:    105 Energy:      -640.727674  Gnorm:      0.020775  CPU:    8.541
  Cycle:    106 Energy:      -640.728487  Gnorm:      0.017633  CPU:    8.628
  Cycle:    107 Energy:      -640.729275  Gnorm:      0.020846  CPU:    8.714
  Cycle:    108 Energy:      -640.730181  Gnorm:      0.022329  CPU:    8.785
  Cycle:    109 Energy:      -640.731315  Gnorm:      0.022195  CPU:    8.871
  Cycle:    110 Energy:      -640.732146  Gnorm:      0.022303  CPU:    8.942
  Cycle:    111 Energy:      -640.732871  Gnorm:      0.017458  CPU:    9.012
  Cycle:    112 Energy:      -640.733486  Gnorm:      0.014713  CPU:    9.083
  Cycle:    113 Energy:      -640.734094  Gnorm:      0.015590  CPU:    9.153
  Cycle:    114 Energy:      -640.734492  Gnorm:      0.014422  CPU:    9.223
  Cycle:    115 Energy:      -640.735125  Gnorm:      0.013557  CPU:    9.294
  Cycle:    116 Energy:      -640.735710  Gnorm:      0.012487  CPU:    9.364
  Cycle:    117 Energy:      -640.736284  Gnorm:      0.012394  CPU:    9.451
  Cycle:    118 Energy:      -640.736656  Gnorm:      0.017227  CPU:    9.521
  Cycle:    119 Energy:      -640.737501  Gnorm:      0.029075  CPU:    9.608
  Cycle:    120 Energy:      -640.738248  Gnorm:      0.016210  CPU:    9.678
  Cycle:    121 Energy:      -640.738598  Gnorm:      0.012430  CPU:    9.749
  Cycle:    122 Energy:      -640.739135  Gnorm:      0.012679  CPU:    9.819
  Cycle:    123 Energy:      -640.739658  Gnorm:      0.012620  CPU:    9.890
  Cycle:    124 Energy:      -640.740239  Gnorm:      0.013448  CPU:    9.977
  Cycle:    125 Energy:      -640.740765  Gnorm:      0.013764  CPU:   10.047
  Cycle:    126 Energy:      -640.741549  Gnorm:      0.015297  CPU:   10.134
  Cycle:    127 Energy:      -640.742390  Gnorm:      0.025864  CPU:   10.204
  Cycle:    128 Energy:      -640.743434  Gnorm:      0.022180  CPU:   10.275
  Cycle:    129 Energy:      -640.745270  Gnorm:      0.041474  CPU:   10.361
  Cycle:    130 Energy:      -640.746504  Gnorm:      0.019249  CPU:   10.432
  Cycle:    131 Energy:      -640.747255  Gnorm:      0.020695  CPU:   10.502
  Cycle:    132 Energy:      -640.748955  Gnorm:      0.021458  CPU:   10.573
  Cycle:    133 Energy:      -640.749649  Gnorm:      0.019072  CPU:   10.643
  Cycle:    134 Energy:      -640.750732  Gnorm:      0.021937  CPU:   10.713
  Cycle:    135 Energy:      -640.752227  Gnorm:      0.021089  CPU:   10.784
  Cycle:    136 Energy:      -640.754270  Gnorm:      0.027739  CPU:   10.870
  Cycle:    137 Energy:      -640.756574  Gnorm:      0.042505  CPU:   10.941
  Cycle:    138 Energy:      -640.761284  Gnorm:      0.070814  CPU:   11.027
  Cycle:    139 Energy:      -640.812246  Gnorm:      0.327140  CPU:   11.146
  Cycle:    140 Energy:      -640.812246  Gnorm:      0.327140  CPU:   11.216
  Cycle:    141 Energy:      -640.882508  Gnorm:      0.134681  CPU:   11.335
  Cycle:    142 Energy:      -640.919438  Gnorm:      0.106209  CPU:   11.406
  Cycle:    143 Energy:      -640.950277  Gnorm:      0.106954  CPU:   11.492
  Cycle:    144 Energy:      -640.998064  Gnorm:      0.123144  CPU:   11.579
  Cycle:    145 Energy:      -641.074400  Gnorm:      0.202653  CPU:   11.666
  Cycle:    146 Energy:      -641.189241  Gnorm:      0.262262  CPU:   11.752
  Cycle:    147 Energy:      -641.287980  Gnorm:      0.241685  CPU:   11.839
  Cycle:    148 Energy:      -641.436394  Gnorm:      0.262417  CPU:   11.926
  Cycle:    149 Energy:      -641.532227  Gnorm:      0.207516  CPU:   11.996
  Cycle:    150 Energy:      -641.585262  Gnorm:      0.185258  CPU:   12.067
  Cycle:    151 Energy:      -641.664847  Gnorm:      0.173508  CPU:   12.154
  Cycle:    152 Energy:      -641.730855  Gnorm:      0.210367  CPU:   12.241
  Cycle:    153 Energy:      -641.798317  Gnorm:      0.141693  CPU:   12.311
  Cycle:    154 Energy:      -641.846236  Gnorm:      0.111160  CPU:   12.398
  Cycle:    155 Energy:      -641.880643  Gnorm:      0.117470  CPU:   12.486
  Cycle:    156 Energy:      -641.923875  Gnorm:      0.129122  CPU:   12.573
  Cycle:    157 Energy:      -641.956749  Gnorm:      0.129707  CPU:   12.644
  Cycle:    158 Energy:      -641.986474  Gnorm:      0.092012  CPU:   12.715
  Cycle:    159 Energy:      -642.013257  Gnorm:      0.098010  CPU:   12.802
  Cycle:    160 Energy:      -642.024107  Gnorm:      0.073436  CPU:   12.873
  Cycle:    161 Energy:      -642.032923  Gnorm:      0.071699  CPU:   12.944
  Cycle:    162 Energy:      -642.047047  Gnorm:      0.062495  CPU:   13.015
  Cycle:    163 Energy:      -642.057250  Gnorm:      0.076084  CPU:   13.102
  Cycle:    164 Energy:      -642.067374  Gnorm:      0.068292  CPU:   13.172
  Cycle:    165 Energy:      -642.084691  Gnorm:      0.079119  CPU:   13.260
  Cycle:    166 Energy:      -642.114069  Gnorm:      0.127100  CPU:   13.346
  Cycle:    167 Energy:      -642.165202  Gnorm:      0.188712  CPU:   13.434
  Cycle:    168 Energy:      -642.255986  Gnorm:      0.260895  CPU:   13.504
  Cycle:    169 Energy:      -642.360625  Gnorm:      0.207739  CPU:   13.576
  Cycle:    170 Energy:      -642.471983  Gnorm:      0.247574  CPU:   13.663
  Cycle:    171 Energy:      -642.560466  Gnorm:      0.175236  CPU:   13.734
  Cycle:    172 Energy:      -642.629239  Gnorm:      0.173462  CPU:   13.821
  Cycle:    173 Energy:      -642.694142  Gnorm:      0.202173  CPU:   13.912
  Cycle:    174 Energy:      -642.783376  Gnorm:      0.198744  CPU:   13.999
  Cycle:    175 Energy:      -642.900611  Gnorm:      0.199376  CPU:   14.091
  Cycle:    176 Energy:      -643.002912  Gnorm:      0.250290  CPU:   14.162
  Cycle:    177 Energy:      -643.105426  Gnorm:      0.191622  CPU:   14.233
  Cycle:    178 Energy:      -643.199282  Gnorm:      0.206543  CPU:   14.324
  Cycle:    179 Energy:      -643.276644  Gnorm:      0.237653  CPU:   14.399
  Cycle:    180 Energy:      -643.331266  Gnorm:      0.178603  CPU:   14.470
  Cycle:    181 Energy:      -643.422221  Gnorm:      0.186113  CPU:   14.562
  Cycle:    182 Energy:      -643.581838  Gnorm:      0.205933  CPU:   14.649
  Cycle:    183 Energy:      -643.661145  Gnorm:      0.204135  CPU:   14.724
  Cycle:    184 Energy:      -643.733248  Gnorm:      0.165704  CPU:   14.811
  Cycle:    185 Energy:      -643.807572  Gnorm:      0.160767  CPU:   14.903
  Cycle:    186 Energy:      -643.875660  Gnorm:      0.162056  CPU:   14.990
  Cycle:    187 Energy:      -643.939128  Gnorm:      0.211443  CPU:   15.082
  Cycle:    188 Energy:      -644.033084  Gnorm:      0.196363  CPU:   15.169
  Cycle:    189 Energy:      -644.136978  Gnorm:      0.200020  CPU:   15.261
  Cycle:    190 Energy:      -644.178925  Gnorm:      0.144197  CPU:   15.332
  Cycle:    191 Energy:      -644.229865  Gnorm:      0.144301  CPU:   15.424
  Cycle:    192 Energy:      -644.267623  Gnorm:      0.099931  CPU:   15.495
  Cycle:    193 Energy:      -644.292885  Gnorm:      0.123680  CPU:   15.587
  Cycle:    194 Energy:      -644.324538  Gnorm:      0.129755  CPU:   15.674
  Cycle:    195 Energy:      -644.373312  Gnorm:      0.143571  CPU:   15.766
  Cycle:    196 Energy:      -644.465409  Gnorm:      0.199370  CPU:   15.853
  Cycle:    197 Energy:      -644.550294  Gnorm:      0.220434  CPU:   15.929
  Cycle:    198 Energy:      -644.650836  Gnorm:      0.212318  CPU:   16.000
  Cycle:    199 Energy:      -644.758110  Gnorm:      0.222368  CPU:   16.092
  Cycle:    200 Energy:      -644.822872  Gnorm:      0.182623  CPU:   16.163
  Cycle:    201 Energy:      -644.874880  Gnorm:      0.133803  CPU:   16.255
  Cycle:    202 Energy:      -644.933351  Gnorm:      0.140694  CPU:   16.343
  Cycle:    203 Energy:      -644.982010  Gnorm:      0.117463  CPU:   16.419
  Cycle:    204 Energy:      -645.021277  Gnorm:      0.124329  CPU:   16.506
  Cycle:    205 Energy:      -645.058008  Gnorm:      0.158299  CPU:   16.582
  Cycle:    206 Energy:      -645.114325  Gnorm:      0.143823  CPU:   16.669
  Cycle:    207 Energy:      -645.183035  Gnorm:      0.160128  CPU:   16.761
  Cycle:    208 Energy:      -645.246753  Gnorm:      0.196962  CPU:   16.833
  Cycle:    209 Energy:      -645.319152  Gnorm:      0.198167  CPU:   16.904
  Cycle:    210 Energy:      -645.366540  Gnorm:      0.160612  CPU:   16.980
  Cycle:    211 Energy:      -645.420820  Gnorm:      0.155121  CPU:   17.072
  Cycle:    212 Energy:      -645.472220  Gnorm:      0.130193  CPU:   17.160
  Cycle:    213 Energy:      -645.531482  Gnorm:      0.146917  CPU:   17.252
  Cycle:    214 Energy:      -645.575920  Gnorm:      0.152565  CPU:   17.323
  Cycle:    215 Energy:      -645.627283  Gnorm:      0.165348  CPU:   17.415
  Cycle:    216 Energy:      -645.712930  Gnorm:      0.188090  CPU:   17.503
  Cycle:    217 Energy:      -645.862663  Gnorm:      0.190214  CPU:   17.595
  Cycle:    218 Energy:      -645.959806  Gnorm:      0.190840  CPU:   17.666
  Cycle:    219 Energy:      -646.025867  Gnorm:      0.225102  CPU:   17.738
  Cycle:    220 Energy:      -646.072108  Gnorm:      0.159518  CPU:   17.814
  Cycle:    221 Energy:      -646.162954  Gnorm:      0.167858  CPU:   17.906
  Cycle:    222 Energy:      -646.251540  Gnorm:      0.135621  CPU:   17.979
  Cycle:    223 Energy:      -646.296176  Gnorm:      0.130232  CPU:   18.051
  Cycle:    224 Energy:      -646.326765  Gnorm:      0.119736  CPU:   18.127
  Cycle:    225 Energy:      -646.356103  Gnorm:      0.126593  CPU:   18.215
  Cycle:    226 Energy:      -646.391372  Gnorm:      0.108107  CPU:   18.303
  Cycle:    227 Energy:      -646.429244  Gnorm:      0.130995  CPU:   18.396
  Cycle:    228 Energy:      -646.457096  Gnorm:      0.117490  CPU:   18.467
  Cycle:    229 Energy:      -646.490750  Gnorm:      0.120557  CPU:   18.554
  Cycle:    230 Energy:      -646.510240  Gnorm:      0.083230  CPU:   18.626
  Cycle:    231 Energy:      -646.523191  Gnorm:      0.088432  CPU:   18.697
  Cycle:    232 Energy:      -646.540477  Gnorm:      0.069304  CPU:   18.785
  Cycle:    233 Energy:      -646.553637  Gnorm:      0.084802  CPU:   18.873
  Cycle:    234 Energy:      -646.565799  Gnorm:      0.074301  CPU:   18.944
  Cycle:    235 Energy:      -646.578430  Gnorm:      0.078763  CPU:   19.032
  Cycle:    236 Energy:      -646.596579  Gnorm:      0.084663  CPU:   19.120
  Cycle:    237 Energy:      -646.623564  Gnorm:      0.103116  CPU:   19.208
  Cycle:    238 Energy:      -646.643055  Gnorm:      0.096381  CPU:   19.280
  Cycle:    239 Energy:      -646.658870  Gnorm:      0.091154  CPU:   19.351
  Cycle:    240 Energy:      -646.668981  Gnorm:      0.076540  CPU:   19.423
  Cycle:    241 Energy:      -646.681023  Gnorm:      0.075885  CPU:   19.511
  Cycle:    242 Energy:      -646.694691  Gnorm:      0.061095  CPU:   19.600
  Cycle:    243 Energy:      -646.704826  Gnorm:      0.046559  CPU:   19.688
  Cycle:    244 Energy:      -646.712178  Gnorm:      0.048699  CPU:   19.776
  Cycle:    245 Energy:      -646.719045  Gnorm:      0.056804  CPU:   19.848
  Cycle:    246 Energy:      -646.724541  Gnorm:      0.052922  CPU:   19.919
  Cycle:    247 Energy:      -646.731400  Gnorm:      0.055997  CPU:   20.007
  Cycle:    248 Energy:      -646.737483  Gnorm:      0.050037  CPU:   20.080
  Cycle:    249 Energy:      -646.749272  Gnorm:      0.104082  CPU:   20.168
  Cycle:    250 Energy:      -646.757108  Gnorm:      0.045213  CPU:   20.239
  Cycle:    251 Energy:      -646.762293  Gnorm:      0.046330  CPU:   20.311
  Cycle:    252 Energy:      -646.767039  Gnorm:      0.046478  CPU:   20.383
  Cycle:    253 Energy:      -646.771217  Gnorm:      0.047933  CPU:   20.454
  Cycle:    254 Energy:      -646.776210  Gnorm:      0.044292  CPU:   20.526
  Cycle:    255 Energy:      -646.781043  Gnorm:      0.042073  CPU:   20.598
  Cycle:    256 Energy:      -646.787704  Gnorm:      0.051120  CPU:   20.686
  Cycle:    257 Energy:      -646.798222  Gnorm:      0.059980  CPU:   20.774
  Cycle:    258 Energy:      -646.809624  Gnorm:      0.064274  CPU:   20.846
  Cycle:    259 Energy:      -646.815863  Gnorm:      0.074289  CPU:   20.917
  Cycle:    260 Energy:      -646.821521  Gnorm:      0.060856  CPU:   20.989
  Cycle:    261 Energy:      -646.832234  Gnorm:      0.060836  CPU:   21.077
  Cycle:    262 Energy:      -646.843353  Gnorm:      0.058954  CPU:   21.165
  Cycle:    263 Energy:      -646.852184  Gnorm:      0.057043  CPU:   21.237
  Cycle:    264 Energy:      -646.858378  Gnorm:      0.060892  CPU:   21.309
  Cycle:    265 Energy:      -646.867355  Gnorm:      0.063121  CPU:   21.397
  Cycle:    266 Energy:      -646.880763  Gnorm:      0.073767  CPU:   21.485
  Cycle:    267 Energy:      -646.896679  Gnorm:      0.081972  CPU:   21.557
  Cycle:    268 Energy:      -646.914238  Gnorm:      0.076159  CPU:   21.629
  Cycle:    269 Energy:      -646.944568  Gnorm:      0.134719  CPU:   21.717
  Cycle:    270 Energy:      -646.958843  Gnorm:      0.077689  CPU:   21.789
  Cycle:    271 Energy:      -646.979132  Gnorm:      0.088599  CPU:   21.861
  Cycle:    272 Energy:      -646.999882  Gnorm:      0.082725  CPU:   21.933
  Cycle:    273 Energy:      -647.010805  Gnorm:      0.070234  CPU:   22.005
  Cycle:    274 Energy:      -647.019233  Gnorm:      0.055203  CPU:   22.077
  Cycle:    275 Energy:      -647.028445  Gnorm:      0.060737  CPU:   22.165
  Cycle:    276 Energy:      -647.037130  Gnorm:      0.052140  CPU:   22.237
  Cycle:    277 Energy:      -647.044483  Gnorm:      0.049538  CPU:   22.325
  Cycle:    278 Energy:      -647.048361  Gnorm:      0.045090  CPU:   22.397
  Cycle:    279 Energy:      -647.052383  Gnorm:      0.042566  CPU:   22.486
  Cycle:    280 Energy:      -647.054926  Gnorm:      0.034424  CPU:   22.558
  Cycle:    281 Energy:      -647.057395  Gnorm:      0.037792  CPU:   22.630
  Cycle:    282 Energy:      -647.060244  Gnorm:      0.033307  CPU:   22.702
  Cycle:    283 Energy:      -647.063406  Gnorm:      0.036358  CPU:   22.774
  Cycle:    284 Energy:      -647.065930  Gnorm:      0.034617  CPU:   22.846
  Cycle:    285 Energy:      -647.068040  Gnorm:      0.029892  CPU:   22.918
  Cycle:    286 Energy:      -647.070412  Gnorm:      0.033077  CPU:   23.006
  Cycle:    287 Energy:      -647.074001  Gnorm:      0.033867  CPU:   23.095
  Cycle:    288 Energy:      -647.077828  Gnorm:      0.030001  CPU:   23.183
  Cycle:    289 Energy:      -647.083754  Gnorm:      0.060042  CPU:   23.272
  Cycle:    290 Energy:      -647.087061  Gnorm:      0.035411  CPU:   23.344
  Cycle:    291 Energy:      -647.088908  Gnorm:      0.024956  CPU:   23.416
  Cycle:    292 Energy:      -647.091468  Gnorm:      0.027197  CPU:   23.488
  Cycle:    293 Energy:      -647.093209  Gnorm:      0.029284  CPU:   23.560
  Cycle:    294 Energy:      -647.094543  Gnorm:      0.023903  CPU:   23.633
  Cycle:    295 Energy:      -647.096283  Gnorm:      0.028484  CPU:   23.705
  Cycle:    296 Energy:      -647.098660  Gnorm:      0.028995  CPU:   23.793
  Cycle:    297 Energy:      -647.101114  Gnorm:      0.030849  CPU:   23.882
  Cycle:    298 Energy:      -647.103928  Gnorm:      0.033023  CPU:   23.971
  Cycle:    299 Energy:      -647.105790  Gnorm:      0.036452  CPU:   24.043
  Cycle:    300 Energy:      -647.107106  Gnorm:      0.028858  CPU:   24.114
  Cycle:    301 Energy:      -647.109686  Gnorm:      0.028088  CPU:   24.186
  Cycle:    302 Energy:      -647.111565  Gnorm:      0.027117  CPU:   24.258
  Cycle:    303 Energy:      -647.113673  Gnorm:      0.026748  CPU:   24.330
  Cycle:    304 Energy:      -647.115457  Gnorm:      0.022860  CPU:   24.402
  Cycle:    305 Energy:      -647.116872  Gnorm:      0.028478  CPU:   24.474
  Cycle:    306 Energy:      -647.118461  Gnorm:      0.029784  CPU:   24.547
  Cycle:    307 Energy:      -647.120816  Gnorm:      0.026649  CPU:   24.619
  Cycle:    308 Energy:      -647.123065  Gnorm:      0.033544  CPU:   24.707
  Cycle:    309 Energy:      -647.126845  Gnorm:      0.061986  CPU:   24.796
  Cycle:    310 Energy:      -647.130026  Gnorm:      0.035799  CPU:   24.868
  Cycle:    311 Energy:      -647.132618  Gnorm:      0.028233  CPU:   24.940
  Cycle:    312 Energy:      -647.135081  Gnorm:      0.031100  CPU:   25.029
  Cycle:    313 Energy:      -647.136837  Gnorm:      0.031274  CPU:   25.101
  Cycle:    314 Energy:      -647.138724  Gnorm:      0.026855  CPU:   25.190
  Cycle:    315 Energy:      -647.140961  Gnorm:      0.030339  CPU:   25.262
  Cycle:    316 Energy:      -647.143956  Gnorm:      0.033746  CPU:   25.334
  Cycle:    317 Energy:      -647.147421  Gnorm:      0.038517  CPU:   25.423
  Cycle:    318 Energy:      -647.152263  Gnorm:      0.040070  CPU:   25.511
  Cycle:    319 Energy:      -647.155816  Gnorm:      0.056891  CPU:   25.584
  Cycle:    320 Energy:      -647.158777  Gnorm:      0.041826  CPU:   25.656
  Cycle:    321 Energy:      -647.164150  Gnorm:      0.042656  CPU:   25.749
  Cycle:    322 Energy:      -647.169294  Gnorm:      0.040547  CPU:   25.821
  Cycle:    323 Energy:      -647.173576  Gnorm:      0.045292  CPU:   25.894
  Cycle:    324 Energy:      -647.177010  Gnorm:      0.039840  CPU:   25.970
  Cycle:    325 Energy:      -647.180634  Gnorm:      0.040195  CPU:   26.063
  Cycle:    326 Energy:      -647.185085  Gnorm:      0.043673  CPU:   26.152
  Cycle:    327 Energy:      -647.191594  Gnorm:      0.050263  CPU:   26.228
  Cycle:    328 Energy:      -647.199935  Gnorm:      0.067947  CPU:   26.317
  Cycle:    329 Energy:      -647.211923  Gnorm:      0.113146  CPU:   26.411
  Cycle:    330 Energy:      -647.223189  Gnorm:      0.076605  CPU:   26.483
  Cycle:    331 Energy:      -647.235987  Gnorm:      0.060836  CPU:   26.555
  Cycle:    332 Energy:      -647.247341  Gnorm:      0.063785  CPU:   26.648
  Cycle:    333 Energy:      -647.256024  Gnorm:      0.060242  CPU:   26.725
  Cycle:    334 Energy:      -647.265390  Gnorm:      0.065039  CPU:   26.814
  Cycle:    335 Energy:      -647.273220  Gnorm:      0.070883  CPU:   26.891
  Cycle:    336 Energy:      -647.286957  Gnorm:      0.070788  CPU:   26.980
  Cycle:    337 Energy:      -647.304078  Gnorm:      0.090240  CPU:   27.074
  Cycle:    338 Energy:      -647.324397  Gnorm:      0.109917  CPU:   27.147
  Cycle:    339 Energy:      -647.342150  Gnorm:      0.110569  CPU:   27.219
  Cycle:    340 Energy:      -647.356861  Gnorm:      0.105661  CPU:   27.296
  Cycle:    341 Energy:      -647.384681  Gnorm:      0.105381  CPU:   27.369
  Cycle:    342 Energy:      -647.407624  Gnorm:      0.091453  CPU:   27.445
  Cycle:    343 Energy:      -647.430268  Gnorm:      0.098336  CPU:   27.539
  Cycle:    344 Energy:      -647.447241  Gnorm:      0.097950  CPU:   27.612
  Cycle:    345 Energy:      -647.466584  Gnorm:      0.090014  CPU:   27.706
  Cycle:    346 Energy:      -647.491139  Gnorm:      0.100740  CPU:   27.795
  Cycle:    347 Energy:      -647.527250  Gnorm:      0.127181  CPU:   27.889
  Cycle:    348 Energy:      -647.572897  Gnorm:      0.166031  CPU:   27.962
  Cycle:    349 Energy:      -647.638714  Gnorm:      0.236230  CPU:   28.035
  Cycle:    350 Energy:      -647.685601  Gnorm:      0.158420  CPU:   28.112
  Cycle:    351 Energy:      -647.743276  Gnorm:      0.132562  CPU:   28.185
  Cycle:    352 Energy:      -647.790156  Gnorm:      0.128457  CPU:   28.279
  Cycle:    353 Energy:      -647.826175  Gnorm:      0.110100  CPU:   28.357
  Cycle:    354 Energy:      -647.851430  Gnorm:      0.113237  CPU:   28.429
  Cycle:    355 Energy:      -647.873872  Gnorm:      0.099961  CPU:   28.503
  Cycle:    356 Energy:      -647.892471  Gnorm:      0.091680  CPU:   28.596
  Cycle:    357 Energy:      -647.912730  Gnorm:      0.083002  CPU:   28.691
  Cycle:    358 Energy:      -647.929830  Gnorm:      0.093073  CPU:   28.780
  Cycle:    359 Energy:      -647.940195  Gnorm:      0.074737  CPU:   28.858
  Cycle:    360 Energy:      -647.947565  Gnorm:      0.072814  CPU:   28.930
  Cycle:    361 Energy:      -647.957939  Gnorm:      0.067439  CPU:   29.003
  Cycle:    362 Energy:      -647.968822  Gnorm:      0.065259  CPU:   29.097
  Cycle:    363 Energy:      -647.979011  Gnorm:      0.069760  CPU:   29.191
  Cycle:    364 Energy:      -647.988346  Gnorm:      0.070826  CPU:   29.264
  Cycle:    365 Energy:      -647.997535  Gnorm:      0.060088  CPU:   29.358
  Cycle:    366 Energy:      -648.005707  Gnorm:      0.059888  CPU:   29.431
  Cycle:    367 Energy:      -648.015317  Gnorm:      0.059169  CPU:   29.504
  Cycle:    368 Energy:      -648.026618  Gnorm:      0.066632  CPU:   29.581
  Cycle:    369 Energy:      -648.034477  Gnorm:      0.088028  CPU:   29.655
  Cycle:    370 Energy:      -648.040581  Gnorm:      0.054712  CPU:   29.731
  Cycle:    371 Energy:      -648.047667  Gnorm:      0.045314  CPU:   29.805
  Cycle:    372 Energy:      -648.053140  Gnorm:      0.044860  CPU:   29.882
  Cycle:    373 Energy:      -648.057511  Gnorm:      0.042184  CPU:   29.955
  Cycle:    374 Energy:      -648.061725  Gnorm:      0.048374  CPU:   30.032
  Cycle:    375 Energy:      -648.065926  Gnorm:      0.044077  CPU:   30.105
  Cycle:    376 Energy:      -648.069868  Gnorm:      0.039735  CPU:   30.199
  Cycle:    377 Energy:      -648.073930  Gnorm:      0.039092  CPU:   30.293
  Cycle:    378 Energy:      -648.078313  Gnorm:      0.032103  CPU:   30.383
  Cycle:    379 Energy:      -648.086539  Gnorm:      0.078732  CPU:   30.478
  Cycle:    380 Energy:      -648.090705  Gnorm:      0.034990  CPU:   30.551
  Cycle:    381 Energy:      -648.093163  Gnorm:      0.031000  CPU:   30.624
  Cycle:    382 Energy:      -648.095343  Gnorm:      0.031922  CPU:   30.701
  Cycle:    383 Energy:      -648.097487  Gnorm:      0.031488  CPU:   30.775
  Cycle:    384 Energy:      -648.099170  Gnorm:      0.031876  CPU:   30.852
  Cycle:    385 Energy:      -648.101638  Gnorm:      0.023444  CPU:   30.925
  Cycle:    386 Energy:      -648.103477  Gnorm:      0.025553  CPU:   31.002
  Cycle:    387 Energy:      -648.105397  Gnorm:      0.028065  CPU:   31.076
  Cycle:    388 Energy:      -648.106771  Gnorm:      0.030106  CPU:   31.153
  Cycle:    389 Energy:      -648.108178  Gnorm:      0.024143  CPU:   31.227
  Cycle:    390 Energy:      -648.109144  Gnorm:      0.024147  CPU:   31.304
  Cycle:    391 Energy:      -648.110162  Gnorm:      0.025097  CPU:   31.377
  Cycle:    392 Energy:      -648.111504  Gnorm:      0.021825  CPU:   31.454
  Cycle:    393 Energy:      -648.112542  Gnorm:      0.019542  CPU:   31.528
  Cycle:    394 Energy:      -648.113539  Gnorm:      0.020629  CPU:   31.605
  Cycle:    395 Energy:      -648.114731  Gnorm:      0.019570  CPU:   31.680
  Cycle:    396 Energy:      -648.115571  Gnorm:      0.020796  CPU:   31.756
  Cycle:    397 Energy:      -648.116187  Gnorm:      0.017474  CPU:   31.829
  Cycle:    398 Energy:      -648.117243  Gnorm:      0.017668  CPU:   31.906
  Cycle:    399 Energy:      -648.120069  Gnorm:      0.033007  CPU:   32.001
  Cycle:    400 Energy:      -648.121453  Gnorm:      0.021702  CPU:   32.074
  Cycle:    401 Energy:      -648.122010  Gnorm:      0.016015  CPU:   32.147
  Cycle:    402 Energy:      -648.122476  Gnorm:      0.013953  CPU:   32.241
  Cycle:    403 Energy:      -648.122893  Gnorm:      0.011724  CPU:   32.319
  Cycle:    404 Energy:      -648.123343  Gnorm:      0.012309  CPU:   32.392
  Cycle:    405 Energy:      -648.123628  Gnorm:      0.012052  CPU:   32.466
  Cycle:    406 Energy:      -648.123871  Gnorm:      0.011001  CPU:   32.543
  Cycle:    407 Energy:      -648.124171  Gnorm:      0.011991  CPU:   32.617
  Cycle:    408 Energy:      -648.124599  Gnorm:      0.009072  CPU:   32.693
  ** Hessian has required structure
  Cycle:    409 Energy:      -648.127666  Gnorm:      0.003490  CPU:   32.922
  ** Hessian has required structure
  Cycle:    410 Energy:      -648.128426  Gnorm:      0.002014  CPU:   33.014
  ** Hessian has required structure
  Cycle:    411 Energy:      -648.128482  Gnorm:      0.000486  CPU:   33.109
  ** Hessian has required structure


  **** Optimisation achieved ****


  Final enthalpy =    -648.12848312 eV      
  Final Gnorm    =       0.00004625

  Components of enthalpy : 

--------------------------------------------------------------------------------
  Interatomic potentials     =         216.36542614 eV    
  Monopole - monopole (real) =        -498.92833586 eV    
  Monopole - monopole (recip)=        -491.90208020 eV    
  Monopole - monopole (total)=        -990.83041606 eV    
  Pressure*volume            =         126.33650680 eV    
--------------------------------------------------------------------------------
  Total lattice enthalpy     =        -648.12848312 eV    
--------------------------------------------------------------------------------
  Total lattice enthalpy     =          -62534.4911 kJ/(mole unit cells)
--------------------------------------------------------------------------------

  Final fractional coordinates of atoms :

--------------------------------------------------------------------------------
   No.  Atomic        x           y          z          Radius
        Label       (Frac)      (Frac)     (Frac)       (Angs) 
--------------------------------------------------------------------------------
     1  Al    c     0.415007    0.638847    0.938874    0.000000
     2  Al    c     0.420943    0.146832    0.914905    0.000000
     3  Al    c     0.746309    0.502984    0.553672    0.000000
     4  Al    c     0.430951    0.147685    0.412403    0.000000
     5  Al    c     0.421930    0.638064    0.438190    0.000000
     6  Al    c     0.719436    0.987236    0.063506    0.000000
     7  Al    c     0.073240    0.314324    0.683821    0.000000
     8  Al    c     0.086708    0.830761    0.395621    0.000000
     9  Mg    c     0.761665    0.502800    0.047239    0.000000
    10  Mg    c     0.726829    0.992515    0.564341    0.000000
    11  Mg    c     0.070710    0.315463    0.187913    0.000000
    12  Mg    c     0.077896    0.817612    0.895308    0.000000
    13  O     c     0.464865    0.400365    0.653536    0.000000
    14  O     c     0.668044    0.223362    0.834743    0.000000
    15  O     c     0.437819    0.393933    0.165036    0.000000
    16  O     c     0.214719    0.064152    0.583652    0.000000
    17  O     c     0.940606    0.612059    0.248169    0.000000
    18  O     c     0.212915    0.018579    0.100634    0.000000
    19  O     c     0.442679    0.894174    0.674224    0.000000
    20  O     c     0.461311    0.901291    0.168111    0.000000
    21  O     c     0.208069    0.518191    0.880824    0.000000
    22  O     c     0.935293    0.109375    0.962123    0.000000
    23  O     c     0.667264    0.730136    0.330233    0.000000
    24  O     c     0.962827    0.088437    0.483157    0.000000
    25  O     c     0.676716    0.226383    0.330549    0.000000
    26  O     c     0.669288    0.727202    0.838208    0.000000
    27  O     c     0.207804    0.568363    0.412073    0.000000
    28  O     c     0.939497    0.578498    0.697134    0.000000
--------------------------------------------------------------------------------

  Final Cartesian lattice vectors (Angstroms) :

        7.900290   -0.730507    0.491402
       -0.744653    5.117367    0.072535
        0.994868    0.055080    5.140345


  Final cell parameters and derivatives :

--------------------------------------------------------------------------------
       a            7.949195 Angstrom     dE/de1(xx)     0.000206 eV/strain
       b            5.171771 Angstrom     dE/de2(yy)    -0.000102 eV/strain
       c            5.236024 Angstrom     dE/de3(zz)    -0.000457 eV/strain
       alpha       90.182198 Degrees      dE/de4(yz)     0.001061 eV/strain
       beta        75.607860 Degrees      dE/de5(xz)    -0.000593 eV/strain
       gamma      103.483281 Degrees      dE/de6(xy)    -0.000292 eV/strain
--------------------------------------------------------------------------------

  Primitive cell volume =           202.414962 Angs**3

  Density of cell =      4.668601 g/cm**3

  Non-primitive cell volume =           202.414962 Angs**3


  Final internal derivatives :

--------------------------------------------------------------------------------
   No.  Atomic          a             b             c           Radius
        Label          (eV)          (eV)          (eV)        (eV/Angs)
--------------------------------------------------------------------------------
      1 Al    c       0.000000      0.000000      0.000000      0.000000
      2 Al    c       0.000101     -0.000118      0.000188      0.000000
      3 Al    c       0.000805      0.000205     -0.000610      0.000000
      4 Al    c      -0.000083     -0.000260     -0.000043      0.000000
      5 Al    c      -0.000269      0.000043     -0.000323      0.000000
      6 Al    c      -0.001904      0.000042     -0.000103      0.000000
      7 Al    c      -0.000153     -0.000003     -0.000104      0.000000
      8 Al    c       0.000028     -0.000019     -0.000113      0.000000
      9 Mg    c       0.000191      0.000128     -0.000013      0.000000
     10 Mg    c      -0.001736      0.000123     -0.000376      0.000000
     11 Mg    c      -0.000466     -0.000010     -0.000095      0.000000
     12 Mg    c       0.000204     -0.000049      0.000139      0.000000
     13 O     c       0.000003      0.000070      0.000062      0.000000
     14 O     c       0.000206     -0.000243      0.000022      0.000000
     15 O     c       0.000092     -0.000241      0.000081      0.000000
     16 O     c       0.000059     -0.000002      0.000222      0.000000
     17 O     c      -0.000271     -0.000344      0.000685      0.000000
     18 O     c       0.000065      0.000305      0.000029      0.000000
     19 O     c      -0.000000      0.000262     -0.000335      0.000000
     20 O     c       0.000289      0.000045      0.000057      0.000000
     21 O     c       0.000042     -0.000005     -0.000262      0.000000
     22 O     c       0.001176      0.000021     -0.000095      0.000000
     23 O     c       0.000099     -0.000081      0.000394      0.000000
     24 O     c       0.001412      0.000104      0.000341      0.000000
     25 O     c       0.000210     -0.000171      0.000270      0.000000
     26 O     c       0.000480      0.000093      0.000040      0.000000
     27 O     c       0.000297     -0.000248     -0.000121      0.000000
     28 O     c      -0.000428     -0.000041     -0.000173      0.000000
--------------------------------------------------------------------------------
  Maximum abs         0.001904      0.000344      0.000685      0.000000
--------------------------------------------------------------------------------


  Time to end of optimisation =      33.2016 seconds


  Peak dynamic memory used =       2.03 MB 


  Timing analysis for GULP :

--------------------------------------------------------------------------------
  Task / Subroutine                                          Time (Seconds)
--------------------------------------------------------------------------------
  Calculation of reciprocal space energy and derivatives          1.1279
  Calculation of real space energy and derivatives               31.9059
  Calculation and manipulation of Hessian matrix                  0.0756
  Global summation overhead                                       0.0025
--------------------------------------------------------------------------------
  Total CPU time                                                 33.2016
--------------------------------------------------------------------------------


  Job Finished at 15:56.58 11th June       2024                               

