********************************************************************************
*                       GENERAL UTILITY LATTICE PROGRAM                        *
*                                 Julian Gale                                  *
*                       Curtin Institute for Computation                       *
*                    School of Molecular and Life Sciences                     *
*                    Curtin University, Western Australia                      *
********************************************************************************
* Version = 6.0.0 * Last modified =  12th July 2021                            *
********************************************************************************
*  optimise     - perform optimisation run                                     *
*  conp         - constant pressure calculation                                *
*  nosymmetry   - turn off symmetry after initial structure generation         *
*  conjugate    - use conjugate gradients minimiser                            *
********************************************************************************

  Job Started  at 16:04.44 11th June       2024                               

  Number of CPUs =     1


  Total number of configurations input =      1

********************************************************************************
*  Input for Configuration =   1                                               *
********************************************************************************

  Formula = Al8Mg4O16                                                   

  Number of irreducible atoms/shells =      28


  Total number atoms/shells =      28

  Dimensionality = 3               :  Bulk   



  Cartesian lattice vectors (Angstroms) :

        5.446803    0.022480   -0.273226
        0.032491    4.890781   -0.351779
       -0.659236   -0.673105    7.895969

  Cell parameters (Angstroms/Degrees):

  a =       5.4537    alpha =  98.9870
  b =       4.9035    beta  =  97.6368
  c =       7.9520    gamma =  89.1793

  Initial cell volume =         208.176407 Angs**3

  Temperature of configuration =   0.00     K 

  Pressure of configuration =       100.000 GPa 

  Fractional coordinates of asymmetric unit :

--------------------------------------------------------------------------------
   No.  Atomic       x           y          z         Charge      Occupancy
        Label      (Frac)      (Frac)     (Frac)        (e)         (Frac)  
--------------------------------------------------------------------------------
      1 Al    c    0.726662    0.740275    0.245260     3.00000    1.000000    
      2 Al    c    0.237899 *  0.424979 *  0.151822 *   3.00000    1.000000    
      3 Al    c    0.714017 *  0.118648 *  0.043868 *   3.00000    1.000000    
      4 Al    c    0.235262 *  0.725645 *  0.003712 *   3.00000    1.000000    
      5 Al    c    0.237427 *  0.723863 *  0.484160 *   3.00000    1.000000    
      6 Al    c    0.709133 *  0.078318 *  0.544862 *   3.00000    1.000000    
      7 Al    c    0.440814 *  0.181918 *  0.885138 *   3.00000    1.000000    
      8 Al    c    0.934233 *  0.890201 *  0.895601 *   3.00000    1.000000    
      9 Mg    c    0.240172 *  0.106348 *  0.302031 *   2.00000    1.000000    
     10 Mg    c    0.723676 *  0.424298 *  0.394299 *   2.00000    1.000000    
     11 Mg    c    0.499351 *  0.513762 *  0.968114 *   2.00000    1.000000    
     12 Mg    c    0.010010 *  0.514250 *  0.962571 *   2.00000    1.000000    
     13 O     c    0.924628 *  0.583505 *  0.086701 *  -2.00000    1.000000    
     14 O     c    0.381136 *  0.369818 *  0.469528 *  -2.00000    1.000000    
     15 O     c    0.858641 *  0.076115 *  0.367577 *  -2.00000    1.000000    
     16 O     c    0.524181 *  0.798352 *  0.408132 *  -2.00000    1.000000    
     17 O     c    0.054717 *  0.573938 *  0.318030 *  -2.00000    1.000000    
     18 O     c    0.423233 *  0.772506 *  0.166150 *  -2.00000    1.000000    
     19 O     c    0.073277 *  0.090265 *  0.102543 *  -2.00000    1.000000    
     20 O     c    0.555153 *  0.320114 *  0.200506 *  -2.00000    1.000000    
     21 O     c    0.402745 *  0.023890 *  0.628583 *  -2.00000    1.000000    
     22 O     c    0.662947 *  0.139993 *  0.658378 *  -2.00000    1.000000    
     23 O     c    0.547562 *  0.709861 *  0.791563 *  -2.00000    1.000000    
     24 O     c    0.183518 *  0.848282 *  0.668842 *  -2.00000    1.000000    
     25 O     c    0.892337 *  0.032924 *  0.631059 *  -2.00000    1.000000    
     26 O     c    0.076769 *  0.320338 *  0.762418 *  -2.00000    1.000000    
     27 O     c    0.614324 *  0.515947 *  0.591413 *  -2.00000    1.000000    
     28 O     c    0.704843 *  0.024425 *  0.922925 *  -2.00000    1.000000    
--------------------------------------------------------------------------------



********************************************************************************
*  General input information                                                   *
********************************************************************************

  Species output for all configurations : 

--------------------------------------------------------------------------------
  Species    Type    Atomic    Atomic    Charge       Radii (Angs)     Library
                     Number     Mass       (e)     Cova   Ionic  VDW   Symbol
--------------------------------------------------------------------------------
    Mg       Core       12      24.31   2.000000   1.100  0.000  1.640          
    Al       Core       13      26.98   3.000000   1.350  0.000  2.050          
    O        Core        8      16.00  -2.000000   0.730  0.000  1.360          
--------------------------------------------------------------------------------


  Lattice summation method               =    Ewald          (3-D)
                                         =    Parry          (2-D)
                                         =    Saunders et al (1-D)
  Accuracy factor for lattice sums       =   12.000


  Analytic derivatives to be used

  Time limit = Infinity

  Maximum range for interatomic potentials =    100000.000000 Angstroms

  General interatomic potentials :

--------------------------------------------------------------------------------
Atom  Types   Potential      Parameter       Value         Units   Cutoffs(Ang)
  1     2                                                            Min /  Max 
--------------------------------------------------------------------------------
O    c Mg   c Lennard       Lennard-Jones A  1.5000000    eV*Ang^m  0.000  6.000
                            Lennard-Jones B  0.0000000    eV*Ang^n  
                            Exponent m        12          None
                            Exponent n         6          None
--------------------------------------------------------------------------------
O    c Al   c Lennard       Lennard-Jones A  1.5000000    eV*Ang^m  0.000  6.000
                            Lennard-Jones B  0.0000000    eV*Ang^n  
                            Exponent m        12          None
                            Exponent n         6          None
--------------------------------------------------------------------------------
O    c O    c Lennard       Lennard-Jones A  1.5000000    eV*Ang^m  0.000  6.000
                            Lennard-Jones B  0.0000000    eV*Ang^n  
                            Exponent m        12          None
                            Exponent n         6          None
--------------------------------------------------------------------------------
Mg   c Mg   c Lennard       Lennard-Jones A  1.5000000    eV*Ang^m  0.000  6.000
                            Lennard-Jones B  0.0000000    eV*Ang^n  
                            Exponent m        12          None
                            Exponent n         6          None
--------------------------------------------------------------------------------
Mg   c Al   c Lennard       Lennard-Jones A  1.5000000    eV*Ang^m  0.000  6.000
                            Lennard-Jones B  0.0000000    eV*Ang^n  
                            Exponent m        12          None
                            Exponent n         6          None
--------------------------------------------------------------------------------
Al   c Al   c Lennard       Lennard-Jones A  1.5000000    eV*Ang^m  0.000  6.000
                            Lennard-Jones B  0.0000000    eV*Ang^n  
                            Exponent m        12          None
                            Exponent n         6          None
--------------------------------------------------------------------------------
O    c Mg   c Buckingham    Buckingham A     1428.5000    eV        0.000  7.000
                            Buckingham rho  0.29450000    Ang       
                            Buckingham C     0.0000000    eV*Ang^6  
--------------------------------------------------------------------------------
O    c Al   c Buckingham    Buckingham A     1114.9000    eV        0.000  7.000
                            Buckingham rho  0.31180000    Ang       
                            Buckingham C     0.0000000    eV*Ang^6  
--------------------------------------------------------------------------------
O    c O    c Buckingham    Buckingham A     2023.8000    eV        0.000  7.000
                            Buckingham rho  0.26740000    Ang       
                            Buckingham C     0.0000000    eV*Ang^6  
--------------------------------------------------------------------------------

********************************************************************************
*  Output for configuration   1                                                *
********************************************************************************


  Components of enthalpy : 

--------------------------------------------------------------------------------
  Interatomic potentials     =         358.40568713 eV    
  Monopole - monopole (real) =        -316.63671838 eV    
  Monopole - monopole (recip)=        -385.97813547 eV    
  Monopole - monopole (total)=        -702.61485385 eV    
  Pressure*volume            =         129.93249045 eV    
--------------------------------------------------------------------------------
  Total lattice enthalpy     =        -214.27667627 eV    
--------------------------------------------------------------------------------
  Total lattice enthalpy     =          -20674.4237 kJ/(mole unit cells)
--------------------------------------------------------------------------------


  Number of variables =       87

  Maximum number of calculations  =           850
  Maximum Hessian update interval =            10
  Maximum step size               =   1.000000000
  Maximum parameter tolerance     =   0.000010000
  Maximum function  tolerance     =   0.000010000
  Maximum gradient  tolerance     =   0.001000000
  Maximum gradient  component     =   0.010000000

  Cell parameters to be optimised using strains

  Conjugate gradient optimiser to be used

  Lower half triangular hessian to be used

  Minimiser to switch to RFO
  When gradient norm is less than     0.010000

  Start of bulk optimisation :

  Cycle:      0 Energy:      -214.276676  Gnorm:     28.314177  CPU:    0.050
  Cycle:      1 Energy:      -440.966352  Gnorm:     13.692770  CPU:    0.158
  Cycle:      2 Energy:      -536.839332  Gnorm:      7.283626  CPU:    0.231
  Cycle:      3 Energy:      -567.158555  Gnorm:      4.514072  CPU:    0.305
  Cycle:      4 Energy:      -586.175696  Gnorm:      3.802184  CPU:    0.396
  Cycle:      5 Energy:      -600.886332  Gnorm:      2.621555  CPU:    0.487
  Cycle:      6 Energy:      -607.808657  Gnorm:      1.916798  CPU:    0.580
  Cycle:      7 Energy:      -612.461979  Gnorm:      1.768945  CPU:    0.650
  Cycle:      8 Energy:      -615.497292  Gnorm:      1.140021  CPU:    0.703
  Cycle:      9 Energy:      -617.681316  Gnorm:      1.180837  CPU:    0.768
  Cycle:     10 Energy:      -618.793747  Gnorm:      0.914302  CPU:    0.821
  Cycle:     11 Energy:      -620.061865  Gnorm:      1.012397  CPU:    0.886
  Cycle:     12 Energy:      -621.638680  Gnorm:      0.943754  CPU:    0.951
  Cycle:     13 Energy:      -622.724217  Gnorm:      0.920923  CPU:    1.004
  Cycle:     14 Energy:      -623.791629  Gnorm:      0.810803  CPU:    1.087
  Cycle:     15 Energy:      -624.890816  Gnorm:      0.678803  CPU:    1.182
  Cycle:     16 Energy:      -625.881336  Gnorm:      0.753536  CPU:    1.277
  Cycle:     17 Energy:      -626.569472  Gnorm:      0.765890  CPU:    1.355
  Cycle:     18 Energy:      -627.365430  Gnorm:      0.686454  CPU:    1.450
  Cycle:     19 Energy:      -628.201484  Gnorm:      0.688449  CPU:    1.545
  Cycle:     20 Energy:      -628.667690  Gnorm:      0.610552  CPU:    1.622
  Cycle:     21 Energy:      -629.409803  Gnorm:      0.608481  CPU:    1.717
  Cycle:     22 Energy:      -630.003089  Gnorm:      0.693288  CPU:    1.794
  Cycle:     23 Energy:      -630.715220  Gnorm:      0.641110  CPU:    1.889
  Cycle:     24 Energy:      -631.493198  Gnorm:      0.606719  CPU:    2.021
  Cycle:     25 Energy:      -632.211703  Gnorm:      0.534460  CPU:    2.162
  Cycle:     26 Energy:      -632.813273  Gnorm:      0.562279  CPU:    2.303
  Cycle:     27 Energy:      -633.277829  Gnorm:      0.573033  CPU:    2.418
  Cycle:     28 Energy:      -633.723748  Gnorm:      0.496504  CPU:    2.560
  Cycle:     29 Energy:      -634.196879  Gnorm:      0.612217  CPU:    2.703
  Cycle:     30 Energy:      -634.426045  Gnorm:      0.377801  CPU:    2.847
  Cycle:     31 Energy:      -634.774301  Gnorm:      0.421627  CPU:    2.990
  Cycle:     32 Energy:      -635.079515  Gnorm:      0.488320  CPU:    3.106
  Cycle:     33 Energy:      -635.410061  Gnorm:      0.461668  CPU:    3.221
  Cycle:     34 Energy:      -635.903708  Gnorm:      0.455721  CPU:    3.336
  Cycle:     35 Energy:      -636.370801  Gnorm:      0.412886  CPU:    3.432
  Cycle:     36 Energy:      -636.674104  Gnorm:      0.375654  CPU:    3.510
  Cycle:     37 Energy:      -636.820385  Gnorm:      0.306687  CPU:    3.588
  Cycle:     38 Energy:      -636.981322  Gnorm:      0.302068  CPU:    3.684
  Cycle:     39 Energy:      -637.127740  Gnorm:      0.303188  CPU:    3.780
  Cycle:     40 Energy:      -637.198039  Gnorm:      0.227534  CPU:    3.858
  Cycle:     41 Energy:      -637.281681  Gnorm:      0.199399  CPU:    3.954
  Cycle:     42 Energy:      -637.366645  Gnorm:      0.237350  CPU:    4.050
  Cycle:     43 Energy:      -637.443541  Gnorm:      0.242954  CPU:    4.128
  Cycle:     44 Energy:      -637.572319  Gnorm:      0.295121  CPU:    4.225
  Cycle:     45 Energy:      -637.787815  Gnorm:      0.307705  CPU:    4.321
  Cycle:     46 Energy:      -638.062065  Gnorm:      0.413143  CPU:    4.467
  Cycle:     47 Energy:      -638.278210  Gnorm:      0.395521  CPU:    4.585
  Cycle:     48 Energy:      -638.510893  Gnorm:      0.320104  CPU:    4.732
  Cycle:     49 Energy:      -638.658491  Gnorm:      0.329368  CPU:    4.879
  Cycle:     50 Energy:      -638.746773  Gnorm:      0.254144  CPU:    4.998
  Cycle:     51 Energy:      -638.865257  Gnorm:      0.231934  CPU:    5.146
  Cycle:     52 Energy:      -638.997323  Gnorm:      0.183248  CPU:    5.271
  Cycle:     53 Energy:      -639.046793  Gnorm:      0.189843  CPU:    5.341
  Cycle:     54 Energy:      -639.102406  Gnorm:      0.151720  CPU:    5.411
  Cycle:     55 Energy:      -639.171677  Gnorm:      0.175386  CPU:    5.481
  Cycle:     56 Energy:      -639.228423  Gnorm:      0.153877  CPU:    5.536
  Cycle:     57 Energy:      -639.263615  Gnorm:      0.148591  CPU:    5.590
  Cycle:     58 Energy:      -639.290734  Gnorm:      0.131175  CPU:    5.646
  Cycle:     59 Energy:      -639.333174  Gnorm:      0.131144  CPU:    5.720
  Cycle:     60 Energy:      -639.352994  Gnorm:      0.114187  CPU:    5.776
  Cycle:     61 Energy:      -639.373029  Gnorm:      0.115776  CPU:    5.847
  Cycle:     62 Energy:      -639.406331  Gnorm:      0.141290  CPU:    5.904
  Cycle:     63 Energy:      -639.439609  Gnorm:      0.152528  CPU:    5.963
  Cycle:     64 Energy:      -639.481883  Gnorm:      0.149114  CPU:    6.030
  Cycle:     65 Energy:      -639.522206  Gnorm:      0.131427  CPU:    6.121
  Cycle:     66 Energy:      -639.576265  Gnorm:      0.155657  CPU:    6.225
  Cycle:     67 Energy:      -639.633511  Gnorm:      0.227035  CPU:    6.306
  Cycle:     68 Energy:      -639.703752  Gnorm:      0.210404  CPU:    6.392
  Cycle:     69 Energy:      -639.783349  Gnorm:      0.235879  CPU:    6.491
  Cycle:     70 Energy:      -639.833144  Gnorm:      0.178597  CPU:    6.577
  Cycle:     71 Energy:      -639.898922  Gnorm:      0.226756  CPU:    6.677
  Cycle:     72 Energy:      -639.984958  Gnorm:      0.139915  CPU:    6.782
  Cycle:     73 Energy:      -640.027402  Gnorm:      0.155049  CPU:    6.882
  Cycle:     74 Energy:      -640.064503  Gnorm:      0.159478  CPU:    6.969
  Cycle:     75 Energy:      -640.133210  Gnorm:      0.199880  CPU:    7.059
  Cycle:     76 Energy:      -640.229538  Gnorm:      0.227748  CPU:    7.128
  Cycle:     77 Energy:      -640.315957  Gnorm:      0.270886  CPU:    7.185
  Cycle:     78 Energy:      -640.429811  Gnorm:      0.247880  CPU:    7.260
  Cycle:     79 Energy:      -640.566136  Gnorm:      0.281370  CPU:    7.331
  Cycle:     80 Energy:      -640.657835  Gnorm:      0.218610  CPU:    7.392
  Cycle:     81 Energy:      -640.768398  Gnorm:      0.236913  CPU:    7.464
  Cycle:     82 Energy:      -640.868485  Gnorm:      0.227774  CPU:    7.550
  Cycle:     83 Energy:      -640.954872  Gnorm:      0.195151  CPU:    7.655
  Cycle:     84 Energy:      -641.025057  Gnorm:      0.182456  CPU:    7.760
  Cycle:     85 Energy:      -641.078071  Gnorm:      0.220634  CPU:    7.848
  Cycle:     86 Energy:      -641.169310  Gnorm:      0.215135  CPU:    7.957
  Cycle:     87 Energy:      -641.326393  Gnorm:      0.228291  CPU:    8.059
  Cycle:     88 Energy:      -641.415863  Gnorm:      0.229716  CPU:    8.145
  Cycle:     89 Energy:      -641.514337  Gnorm:      0.278701  CPU:    8.250
  Cycle:     90 Energy:      -641.575848  Gnorm:      0.203904  CPU:    8.332
  Cycle:     91 Energy:      -641.676623  Gnorm:      0.231338  CPU:    8.438
  Cycle:     92 Energy:      -641.768601  Gnorm:      0.220293  CPU:    8.520
  Cycle:     93 Energy:      -641.829591  Gnorm:      0.182781  CPU:    8.606
  Cycle:     94 Energy:      -641.899416  Gnorm:      0.190946  CPU:    8.707
  Cycle:     95 Energy:      -642.017365  Gnorm:      0.238138  CPU:    8.812
  Cycle:     96 Energy:      -642.186142  Gnorm:      0.295225  CPU:    8.916
  Cycle:     97 Energy:      -642.344607  Gnorm:      0.323755  CPU:    8.975
  Cycle:     98 Energy:      -642.503329  Gnorm:      0.301639  CPU:    9.030
  Cycle:     99 Energy:      -642.690048  Gnorm:      0.321308  CPU:    9.101
  Cycle:    100 Energy:      -642.844969  Gnorm:      0.336964  CPU:    9.155
  Cycle:    101 Energy:      -643.109734  Gnorm:      0.399224  CPU:    9.226
  Cycle:    102 Energy:      -643.357251  Gnorm:      0.341778  CPU:    9.280
  Cycle:    103 Energy:      -643.551434  Gnorm:      0.291832  CPU:    9.351
  Cycle:    104 Energy:      -643.670044  Gnorm:      0.255471  CPU:    9.405
  Cycle:    105 Energy:      -643.805666  Gnorm:      0.276918  CPU:    9.476
  Cycle:    106 Energy:      -643.974562  Gnorm:      0.250902  CPU:    9.542
  Cycle:    107 Energy:      -644.105419  Gnorm:      0.223069  CPU:    9.613
  Cycle:    108 Energy:      -644.248967  Gnorm:      0.212992  CPU:    9.679
  Cycle:    109 Energy:      -644.355813  Gnorm:      0.214207  CPU:    9.738
  Cycle:    110 Energy:      -644.403409  Gnorm:      0.148883  CPU:    9.792
  Cycle:    111 Energy:      -644.453316  Gnorm:      0.172633  CPU:    9.862
  Cycle:    112 Energy:      -644.493252  Gnorm:      0.150701  CPU:    9.917
  Cycle:    113 Energy:      -644.542243  Gnorm:      0.154304  CPU:    9.987
  Cycle:    114 Energy:      -644.610818  Gnorm:      0.181693  CPU:   10.053
  Cycle:    115 Energy:      -644.684535  Gnorm:      0.240636  CPU:   10.112
  Cycle:    116 Energy:      -644.813850  Gnorm:      0.307244  CPU:   10.206
  Cycle:    117 Energy:      -645.018231  Gnorm:      0.358961  CPU:   10.290
  Cycle:    118 Energy:      -645.117945  Gnorm:      0.272746  CPU:   10.375
  Cycle:    119 Energy:      -645.263798  Gnorm:      0.254454  CPU:   10.475
  Cycle:    120 Energy:      -645.335781  Gnorm:      0.195826  CPU:   10.560
  Cycle:    121 Energy:      -645.433611  Gnorm:      0.288874  CPU:   10.660
  Cycle:    122 Energy:      -645.589499  Gnorm:      0.211985  CPU:   10.764
  Cycle:    123 Energy:      -645.645542  Gnorm:      0.141120  CPU:   10.845
  Cycle:    124 Energy:      -645.689984  Gnorm:      0.186331  CPU:   10.949
  Cycle:    125 Energy:      -645.752694  Gnorm:      0.139169  CPU:   11.049
  Cycle:    126 Energy:      -645.788479  Gnorm:      0.141463  CPU:   11.134
  Cycle:    127 Energy:      -645.851804  Gnorm:      0.184628  CPU:   11.234
  Cycle:    128 Energy:      -645.903492  Gnorm:      0.173124  CPU:   11.319
  Cycle:    129 Energy:      -645.959116  Gnorm:      0.167805  CPU:   11.424
  Cycle:    130 Energy:      -645.984816  Gnorm:      0.113612  CPU:   11.505
  Cycle:    131 Energy:      -646.007744  Gnorm:      0.110067  CPU:   11.609
  Cycle:    132 Energy:      -646.030922  Gnorm:      0.103958  CPU:   11.708
  Cycle:    133 Energy:      -646.057983  Gnorm:      0.120445  CPU:   11.812
  Cycle:    134 Energy:      -646.118062  Gnorm:      0.200468  CPU:   11.911
  Cycle:    135 Energy:      -646.181758  Gnorm:      0.183266  CPU:   11.996
  Cycle:    136 Energy:      -646.257528  Gnorm:      0.218359  CPU:   12.077
  Cycle:    137 Energy:      -646.407003  Gnorm:      0.297368  CPU:   12.181
  Cycle:    138 Energy:      -646.580164  Gnorm:      0.245605  CPU:   12.262
  Cycle:    139 Energy:      -646.690790  Gnorm:      0.240170  CPU:   12.347
  Cycle:    140 Energy:      -646.748122  Gnorm:      0.167649  CPU:   12.428
  Cycle:    141 Energy:      -646.808798  Gnorm:      0.160298  CPU:   12.529
  Cycle:    142 Energy:      -646.855154  Gnorm:      0.140017  CPU:   12.610
  Cycle:    143 Energy:      -646.890145  Gnorm:      0.122991  CPU:   12.691
  Cycle:    144 Energy:      -646.928254  Gnorm:      0.171302  CPU:   12.791
  Cycle:    145 Energy:      -646.973334  Gnorm:      0.123702  CPU:   12.872
  Cycle:    146 Energy:      -647.020418  Gnorm:      0.137941  CPU:   12.971
  Cycle:    147 Energy:      -647.065587  Gnorm:      0.159927  CPU:   13.052
  Cycle:    148 Energy:      -647.104417  Gnorm:      0.137551  CPU:   13.133
  Cycle:    149 Energy:      -647.144894  Gnorm:      0.155448  CPU:   13.233
  Cycle:    150 Energy:      -647.170222  Gnorm:      0.105947  CPU:   13.314
  Cycle:    151 Energy:      -647.188263  Gnorm:      0.101784  CPU:   13.396
  Cycle:    152 Energy:      -647.211412  Gnorm:      0.104887  CPU:   13.477
  Cycle:    153 Energy:      -647.232089  Gnorm:      0.084304  CPU:   13.558
  Cycle:    154 Energy:      -647.255543  Gnorm:      0.109969  CPU:   13.658
  Cycle:    155 Energy:      -647.279251  Gnorm:      0.116766  CPU:   13.740
  Cycle:    156 Energy:      -647.306634  Gnorm:      0.116301  CPU:   13.821
  Cycle:    157 Energy:      -647.341623  Gnorm:      0.133609  CPU:   13.921
  Cycle:    158 Energy:      -647.386514  Gnorm:      0.118594  CPU:   14.021
  Cycle:    159 Energy:      -647.439256  Gnorm:      0.189625  CPU:   14.122
  Cycle:    160 Energy:      -647.478888  Gnorm:      0.106889  CPU:   14.203
  Cycle:    161 Energy:      -647.505317  Gnorm:      0.117369  CPU:   14.312
  Cycle:    162 Energy:      -647.529643  Gnorm:      0.110092  CPU:   14.399
  Cycle:    163 Energy:      -647.552266  Gnorm:      0.085862  CPU:   14.501
  Cycle:    164 Energy:      -647.570702  Gnorm:      0.097844  CPU:   14.604
  Cycle:    165 Energy:      -647.592930  Gnorm:      0.106760  CPU:   14.709
  Cycle:    166 Energy:      -647.608483  Gnorm:      0.095539  CPU:   14.794
  Cycle:    167 Energy:      -647.631968  Gnorm:      0.097639  CPU:   14.898
  Cycle:    168 Energy:      -647.654652  Gnorm:      0.092464  CPU:   14.998
  Cycle:    169 Energy:      -647.674956  Gnorm:      0.123692  CPU:   15.084
  Cycle:    170 Energy:      -647.692016  Gnorm:      0.090250  CPU:   15.170
  Cycle:    171 Energy:      -647.709259  Gnorm:      0.094230  CPU:   15.270
  Cycle:    172 Energy:      -647.728900  Gnorm:      0.088152  CPU:   15.378
  Cycle:    173 Energy:      -647.745672  Gnorm:      0.086859  CPU:   15.485
  Cycle:    174 Energy:      -647.768657  Gnorm:      0.088364  CPU:   15.563
  Cycle:    175 Energy:      -647.786227  Gnorm:      0.090026  CPU:   15.619
  Cycle:    176 Energy:      -647.804868  Gnorm:      0.113818  CPU:   15.688
  Cycle:    177 Energy:      -647.827051  Gnorm:      0.110479  CPU:   15.744
  Cycle:    178 Energy:      -647.852950  Gnorm:      0.101717  CPU:   15.811
  Cycle:    179 Energy:      -647.891396  Gnorm:      0.179062  CPU:   15.878
  Cycle:    180 Energy:      -647.923002  Gnorm:      0.110778  CPU:   15.945
  Cycle:    181 Energy:      -647.940670  Gnorm:      0.100978  CPU:   16.000
  Cycle:    182 Energy:      -647.963151  Gnorm:      0.100516  CPU:   16.067
  Cycle:    183 Energy:      -647.986915  Gnorm:      0.088589  CPU:   16.134
  Cycle:    184 Energy:      -648.004145  Gnorm:      0.099708  CPU:   16.201
  Cycle:    185 Energy:      -648.024714  Gnorm:      0.104156  CPU:   16.267
  Cycle:    186 Energy:      -648.044495  Gnorm:      0.087648  CPU:   16.322
  Cycle:    187 Energy:      -648.068740  Gnorm:      0.099455  CPU:   16.389
  Cycle:    188 Energy:      -648.096038  Gnorm:      0.098378  CPU:   16.443
  Cycle:    189 Energy:      -648.114845  Gnorm:      0.140069  CPU:   16.498
  Cycle:    190 Energy:      -648.131392  Gnorm:      0.098736  CPU:   16.553
  Cycle:    191 Energy:      -648.156270  Gnorm:      0.103637  CPU:   16.608
  Cycle:    192 Energy:      -648.180514  Gnorm:      0.092475  CPU:   16.662
  Cycle:    193 Energy:      -648.201680  Gnorm:      0.100191  CPU:   16.729
  Cycle:    194 Energy:      -648.230560  Gnorm:      0.104844  CPU:   16.796
  Cycle:    195 Energy:      -648.253164  Gnorm:      0.114246  CPU:   16.850
  Cycle:    196 Energy:      -648.281126  Gnorm:      0.127441  CPU:   16.918
  Cycle:    197 Energy:      -648.318448  Gnorm:      0.118088  CPU:   16.985
  Cycle:    198 Energy:      -648.353944  Gnorm:      0.135802  CPU:   17.053
  Cycle:    199 Energy:      -648.421674  Gnorm:      0.295105  CPU:   17.120
  Cycle:    200 Energy:      -648.484689  Gnorm:      0.158356  CPU:   17.175
  Cycle:    201 Energy:      -648.530005  Gnorm:      0.139159  CPU:   17.242
  Cycle:    202 Energy:      -648.588342  Gnorm:      0.153577  CPU:   17.308
  Cycle:    203 Energy:      -648.642272  Gnorm:      0.142494  CPU:   17.362
  Cycle:    204 Energy:      -648.682338  Gnorm:      0.151195  CPU:   17.417
  Cycle:    205 Energy:      -648.730166  Gnorm:      0.154215  CPU:   17.484
  Cycle:    206 Energy:      -648.772491  Gnorm:      0.125165  CPU:   17.538
  Cycle:    207 Energy:      -648.821486  Gnorm:      0.160865  CPU:   17.605
  Cycle:    208 Energy:      -648.861115  Gnorm:      0.165535  CPU:   17.661
  Cycle:    209 Energy:      -648.917524  Gnorm:      0.167160  CPU:   17.729
  Cycle:    210 Energy:      -648.954717  Gnorm:      0.164467  CPU:   17.783
  Cycle:    211 Energy:      -649.003361  Gnorm:      0.156154  CPU:   17.851
  Cycle:    212 Energy:      -649.065034  Gnorm:      0.134107  CPU:   17.917
  Cycle:    213 Energy:      -649.102661  Gnorm:      0.152386  CPU:   17.972
  Cycle:    214 Energy:      -649.147803  Gnorm:      0.138154  CPU:   18.038
  Cycle:    215 Energy:      -649.183091  Gnorm:      0.136881  CPU:   18.105
  Cycle:    216 Energy:      -649.236313  Gnorm:      0.156128  CPU:   18.173
  Cycle:    217 Energy:      -649.306277  Gnorm:      0.200038  CPU:   18.240
  Cycle:    218 Energy:      -649.360605  Gnorm:      0.193619  CPU:   18.294
  Cycle:    219 Energy:      -649.493316  Gnorm:      0.295199  CPU:   18.362
  Cycle:    220 Energy:      -649.581210  Gnorm:      0.186599  CPU:   18.417
  Cycle:    221 Energy:      -649.630592  Gnorm:      0.166456  CPU:   18.484
  Cycle:    222 Energy:      -649.689576  Gnorm:      0.150466  CPU:   18.551
  Cycle:    223 Energy:      -649.732472  Gnorm:      0.129607  CPU:   18.605
  Cycle:    224 Energy:      -649.762087  Gnorm:      0.116653  CPU:   18.659
  Cycle:    225 Energy:      -649.790036  Gnorm:      0.132894  CPU:   18.726
  Cycle:    226 Energy:      -649.829453  Gnorm:      0.108281  CPU:   18.792
  Cycle:    227 Energy:      -649.876661  Gnorm:      0.141718  CPU:   18.862
  Cycle:    228 Energy:      -649.911247  Gnorm:      0.155367  CPU:   18.921
  Cycle:    229 Energy:      -649.950105  Gnorm:      0.144222  CPU:   18.978
  Cycle:    230 Energy:      -649.972070  Gnorm:      0.124602  CPU:   19.037
  Cycle:    231 Energy:      -650.005945  Gnorm:      0.122948  CPU:   19.103
  Cycle:    232 Energy:      -650.039778  Gnorm:      0.106747  CPU:   19.176
  Cycle:    233 Energy:      -650.065364  Gnorm:      0.113831  CPU:   19.243
  Cycle:    234 Energy:      -650.092228  Gnorm:      0.111354  CPU:   19.317
  Cycle:    235 Energy:      -650.113205  Gnorm:      0.103077  CPU:   19.372
  Cycle:    236 Energy:      -650.145306  Gnorm:      0.117407  CPU:   19.442
  Cycle:    237 Energy:      -650.183688  Gnorm:      0.112426  CPU:   19.511
  Cycle:    238 Energy:      -650.224449  Gnorm:      0.136409  CPU:   19.584
  Cycle:    239 Energy:      -650.314868  Gnorm:      0.247980  CPU:   19.651
  Cycle:    240 Energy:      -650.374741  Gnorm:      0.113719  CPU:   19.722
  Cycle:    241 Energy:      -650.401795  Gnorm:      0.107301  CPU:   19.788
  Cycle:    242 Energy:      -650.418799  Gnorm:      0.105041  CPU:   19.846
  Cycle:    243 Energy:      -650.439753  Gnorm:      0.086566  CPU:   19.913
  Cycle:    244 Energy:      -650.454820  Gnorm:      0.075082  CPU:   19.983
  Cycle:    245 Energy:      -650.466672  Gnorm:      0.079172  CPU:   20.037
  Cycle:    246 Energy:      -650.477272  Gnorm:      0.068325  CPU:   20.095
  Cycle:    247 Energy:      -650.488145  Gnorm:      0.069962  CPU:   20.165
  Cycle:    248 Energy:      -650.502383  Gnorm:      0.073891  CPU:   20.220
  Cycle:    249 Energy:      -650.514377  Gnorm:      0.064680  CPU:   20.274
  Cycle:    250 Energy:      -650.523240  Gnorm:      0.067826  CPU:   20.329
  Cycle:    251 Energy:      -650.531920  Gnorm:      0.071801  CPU:   20.383
  Cycle:    252 Energy:      -650.539970  Gnorm:      0.059978  CPU:   20.437
  Cycle:    253 Energy:      -650.547757  Gnorm:      0.060362  CPU:   20.504
  Cycle:    254 Energy:      -650.555746  Gnorm:      0.063439  CPU:   20.571
  Cycle:    255 Energy:      -650.562834  Gnorm:      0.062077  CPU:   20.625
  Cycle:    256 Energy:      -650.572571  Gnorm:      0.064135  CPU:   20.691
  Cycle:    257 Energy:      -650.583233  Gnorm:      0.063410  CPU:   20.759
  Cycle:    258 Energy:      -650.594508  Gnorm:      0.074796  CPU:   20.827
  Cycle:    259 Energy:      -650.605508  Gnorm:      0.101057  CPU:   20.881
  Cycle:    260 Energy:      -650.614072  Gnorm:      0.068021  CPU:   20.938
  Cycle:    261 Energy:      -650.622729  Gnorm:      0.052729  CPU:   20.994
  Cycle:    262 Energy:      -650.629846  Gnorm:      0.048911  CPU:   21.060
  Cycle:    263 Energy:      -650.635711  Gnorm:      0.044516  CPU:   21.114
  Cycle:    264 Energy:      -650.639443  Gnorm:      0.044099  CPU:   21.169
  Cycle:    265 Energy:      -650.642910  Gnorm:      0.039012  CPU:   21.223
  Cycle:    266 Energy:      -650.646272  Gnorm:      0.037809  CPU:   21.289
  Cycle:    267 Energy:      -650.650040  Gnorm:      0.041917  CPU:   21.344
  Cycle:    268 Energy:      -650.653488  Gnorm:      0.044223  CPU:   21.398
  Cycle:    269 Energy:      -650.656144  Gnorm:      0.039900  CPU:   21.453
  Cycle:    270 Energy:      -650.658446  Gnorm:      0.039882  CPU:   21.507
  Cycle:    271 Energy:      -650.661161  Gnorm:      0.036932  CPU:   21.561
  Cycle:    272 Energy:      -650.663985  Gnorm:      0.031976  CPU:   21.629
  Cycle:    273 Energy:      -650.666223  Gnorm:      0.032090  CPU:   21.686
  Cycle:    274 Energy:      -650.668524  Gnorm:      0.034005  CPU:   21.745
  Cycle:    275 Energy:      -650.670639  Gnorm:      0.032850  CPU:   21.800
  Cycle:    276 Energy:      -650.673405  Gnorm:      0.034488  CPU:   21.866
  Cycle:    277 Energy:      -650.676439  Gnorm:      0.033434  CPU:   21.921
  Cycle:    278 Energy:      -650.679799  Gnorm:      0.036363  CPU:   21.975
  Cycle:    279 Energy:      -650.684729  Gnorm:      0.060519  CPU:   22.042
  Cycle:    280 Energy:      -650.688612  Gnorm:      0.030374  CPU:   22.096
  Cycle:    281 Energy:      -650.690746  Gnorm:      0.026913  CPU:   22.162
  Cycle:    282 Energy:      -650.692100  Gnorm:      0.028448  CPU:   22.218
  Cycle:    283 Energy:      -650.693330  Gnorm:      0.024725  CPU:   22.275
  Cycle:    284 Energy:      -650.694468  Gnorm:      0.020313  CPU:   22.329
  Cycle:    285 Energy:      -650.695464  Gnorm:      0.020086  CPU:   22.383
  Cycle:    286 Energy:      -650.696285  Gnorm:      0.020199  CPU:   22.437
  Cycle:    287 Energy:      -650.697094  Gnorm:      0.020750  CPU:   22.492
  Cycle:    288 Energy:      -650.698073  Gnorm:      0.020315  CPU:   22.546
  Cycle:    289 Energy:      -650.698946  Gnorm:      0.018207  CPU:   22.600
  Cycle:    290 Energy:      -650.699680  Gnorm:      0.018615  CPU:   22.654
  Cycle:    291 Energy:      -650.700359  Gnorm:      0.019407  CPU:   22.709
  Cycle:    292 Energy:      -650.700926  Gnorm:      0.016659  CPU:   22.763
  Cycle:    293 Energy:      -650.701476  Gnorm:      0.015934  CPU:   22.820
  Cycle:    294 Energy:      -650.702061  Gnorm:      0.016517  CPU:   22.878
  Cycle:    295 Energy:      -650.702578  Gnorm:      0.017126  CPU:   22.934
  Cycle:    296 Energy:      -650.703245  Gnorm:      0.017462  CPU:   23.012
  Cycle:    297 Energy:      -650.703965  Gnorm:      0.016588  CPU:   23.067
  Cycle:    298 Energy:      -650.704789  Gnorm:      0.018177  CPU:   23.125
  Cycle:    299 Energy:      -650.705850  Gnorm:      0.029785  CPU:   23.192
  Cycle:    300 Energy:      -650.706659  Gnorm:      0.017550  CPU:   23.250
  Cycle:    301 Energy:      -650.707104  Gnorm:      0.015155  CPU:   23.305
  Cycle:    302 Energy:      -650.707515  Gnorm:      0.012385  CPU:   23.364
  Cycle:    303 Energy:      -650.707925  Gnorm:      0.011724  CPU:   23.418
  Cycle:    304 Energy:      -650.708222  Gnorm:      0.010566  CPU:   23.476
  Cycle:    305 Energy:      -650.708455  Gnorm:      0.010895  CPU:   23.531
  Cycle:    306 Energy:      -650.708669  Gnorm:      0.009942  CPU:   23.589
  ** Hessian has required structure
  Cycle:    307 Energy:      -650.711936  Gnorm:      0.004531  CPU:   23.797
  ** Hessian has required structure
  Cycle:    308 Energy:      -650.713024  Gnorm:      0.001128  CPU:   23.882
  ** Hessian has required structure
  Cycle:    309 Energy:      -650.713040  Gnorm:      0.000226  CPU:   23.954
  ** Hessian has required structure


  **** Optimisation achieved ****


  Final enthalpy =    -650.71304065 eV      
  Final Gnorm    =       0.00001164

  Components of enthalpy : 

--------------------------------------------------------------------------------
  Interatomic potentials     =         216.96564815 eV    
  Monopole - monopole (real) =        -501.43127444 eV    
  Monopole - monopole (recip)=        -492.32928436 eV    
  Monopole - monopole (total)=        -993.76055880 eV    
  Pressure*volume            =         126.08187000 eV    
--------------------------------------------------------------------------------
  Total lattice enthalpy     =        -650.71304065 eV    
--------------------------------------------------------------------------------
  Total lattice enthalpy     =          -62783.8614 kJ/(mole unit cells)
--------------------------------------------------------------------------------

  Final fractional coordinates of atoms :

--------------------------------------------------------------------------------
   No.  Atomic        x           y          z          Radius
        Label       (Frac)      (Frac)     (Frac)       (Angs) 
--------------------------------------------------------------------------------
     1  Al    c     0.726662    0.740275    0.245260    0.000000
     2  Al    c     0.226662    0.733222    0.246512    0.000000
     3  Al    c     0.975459    0.284391    0.963738    0.000000
     4  Al    c     0.226662    0.247622    0.285439    0.000000
     5  Al    c     0.475839    0.765799    0.596509    0.000000
     6  Al    c     0.726664    0.270244    0.611805    0.000000
     7  Al    c     0.477866    0.284391    0.963737    0.000000
     8  Al    c     0.977489    0.765799    0.596509    0.000000
     9  Mg    c     0.226664    0.288970    0.635262    0.000000
    10  Mg    c     0.726662    0.247926    0.273514    0.000000
    11  Mg    c     0.475932    0.780638    0.934592    0.000000
    12  Mg    c     0.977395    0.780638    0.934592    0.000000
    13  O     c     0.988153    0.946768    0.225559    0.000000
    14  O     c     0.475044    0.365337    0.482905    0.000000
    15  O     c     0.978286    0.365337    0.482904    0.000000
    16  O     c     0.726664    0.857140    0.475974    0.000000
    17  O     c     0.226664    0.836889    0.476256    0.000000
    18  O     c     0.465172    0.946769    0.225560    0.000000
    19  O     c     0.986085    0.483455    0.226128    0.000000
    20  O     c     0.467240    0.483456    0.226128    0.000000
    21  O     c     0.495376    0.159634    0.734329    0.000000
    22  O     c     0.726663    0.546971    0.998308    0.000000
    23  O     c     0.726665    0.661833    0.716633    0.000000
    24  O     c     0.226663    0.105709    0.017125    0.000000
    25  O     c     0.957952    0.159635    0.734328    0.000000
    26  O     c     0.226663    0.530376    0.979229    0.000000
    27  O     c     0.226664    0.712772    0.729009    0.000000
    28  O     c     0.726663    0.089855    0.998088    0.000000
--------------------------------------------------------------------------------

  Final Cartesian lattice vectors (Angstroms) :

        5.264312    0.033465    0.085489
       -0.016221    5.102840   -0.998488
       -0.116531   -1.745681    7.859210


  Final cell parameters and derivatives :

--------------------------------------------------------------------------------
       a            5.265112 Angstrom     dE/de1(xx)     0.000145 eV/strain
       b            5.199636 Angstrom     dE/de2(yy)     0.000133 eV/strain
       c            8.051594 Angstrom     dE/de3(zz)    -0.000029 eV/strain
       alpha      113.588960 Degrees      dE/de4(yz)    -0.000073 eV/strain
       beta        90.000000 Degrees      dE/de5(xz)    -0.000210 eV/strain
       gamma       89.999975 Degrees      dE/de6(xy)     0.000043 eV/strain
--------------------------------------------------------------------------------

  Primitive cell volume =           202.006985 Angs**3

  Density of cell =      4.678029 g/cm**3

  Non-primitive cell volume =           202.006985 Angs**3


  Final internal derivatives :

--------------------------------------------------------------------------------
   No.  Atomic          a             b             c           Radius
        Label          (eV)          (eV)          (eV)        (eV/Angs)
--------------------------------------------------------------------------------
      1 Al    c       0.000000      0.000000      0.000000      0.000000
      2 Al    c      -0.000225      0.000015      0.000228      0.000000
      3 Al    c      -0.000044     -0.000006      0.000095      0.000000
      4 Al    c      -0.000547      0.000125     -0.000095      0.000000
      5 Al    c       0.000059      0.000018      0.000107      0.000000
      6 Al    c       0.000079     -0.000034     -0.000074      0.000000
      7 Al    c       0.000056     -0.000030     -0.000028      0.000000
      8 Al    c      -0.000029     -0.000054      0.000070      0.000000
      9 Mg    c       0.000068     -0.000012      0.000007      0.000000
     10 Mg    c      -0.000133      0.000041     -0.000060      0.000000
     11 Mg    c       0.000019      0.000017     -0.000046      0.000000
     12 Mg    c      -0.000018      0.000033     -0.000051      0.000000
     13 O     c       0.000042      0.000001     -0.000069      0.000000
     14 O     c       0.000204      0.000027      0.000015      0.000000
     15 O     c       0.000244     -0.000026     -0.000407      0.000000
     16 O     c       0.000001      0.000033     -0.000229      0.000000
     17 O     c       0.000077      0.000036     -0.000136      0.000000
     18 O     c       0.000041      0.000062      0.000068      0.000000
     19 O     c       0.000089     -0.000063      0.000013      0.000000
     20 O     c       0.000099     -0.000064      0.000105      0.000000
     21 O     c      -0.000022      0.000005     -0.000019      0.000000
     22 O     c      -0.000040      0.000006     -0.000036      0.000000
     23 O     c      -0.000074     -0.000021      0.000048      0.000000
     24 O     c      -0.000002     -0.000018     -0.000049      0.000000
     25 O     c      -0.000025     -0.000019      0.000012      0.000000
     26 O     c       0.000005     -0.000010      0.000021      0.000000
     27 O     c       0.000024     -0.000010     -0.000030      0.000000
     28 O     c      -0.000030      0.000006     -0.000008      0.000000
--------------------------------------------------------------------------------
  Maximum abs         0.000547      0.000125      0.000407      0.000000
--------------------------------------------------------------------------------


  Time to end of optimisation =      24.0270 seconds


  Peak dynamic memory used =       2.03 MB 


  Timing analysis for GULP :

--------------------------------------------------------------------------------
  Task / Subroutine                                          Time (Seconds)
--------------------------------------------------------------------------------
  Calculation of reciprocal space energy and derivatives          0.9261
  Calculation of real space energy and derivatives               22.9420
  Calculation and manipulation of Hessian matrix                  0.0762
  Global summation overhead                                       0.0021
--------------------------------------------------------------------------------
  Total CPU time                                                 24.0271
--------------------------------------------------------------------------------


  Job Finished at 16:05.09 11th June       2024                               

