********************************************************************************
*                       GENERAL UTILITY LATTICE PROGRAM                        *
*                                 Julian Gale                                  *
*                       Curtin Institute for Computation                       *
*                    School of Molecular and Life Sciences                     *
*                    Curtin University, Western Australia                      *
********************************************************************************
* Version = 6.0.0 * Last modified =  12th July 2021                            *
********************************************************************************
*  optimise     - perform optimisation run                                     *
*  conp         - constant pressure calculation                                *
*  nosymmetry   - turn off symmetry after initial structure generation         *
*  conjugate    - use conjugate gradients minimiser                            *
********************************************************************************

  Job Started  at 15:57.27 11th June       2024                               

  Number of CPUs =     1


  Total number of configurations input =      1

********************************************************************************
*  Input for Configuration =   1                                               *
********************************************************************************

  Formula = Al8Mg4O16                                                   

  Number of irreducible atoms/shells =      28


  Total number atoms/shells =      28

  Dimensionality = 3               :  Bulk   



  Cartesian lattice vectors (Angstroms) :

        5.491012   -2.952563    0.026402
       -0.030298    5.655491   -0.002908
       -0.004312    0.004053    6.722955

  Cell parameters (Angstroms/Degrees):

  a =       6.2345    alpha =  89.9947
  b =       5.6556    beta  =  89.8061
  c =       6.7230    gamma = 118.5741

  Initial cell volume =         208.176407 Angs**3

  Temperature of configuration =   0.00     K 

  Pressure of configuration =       100.000 GPa 

  Fractional coordinates of asymmetric unit :

--------------------------------------------------------------------------------
   No.  Atomic       x           y          z         Charge      Occupancy
        Label      (Frac)      (Frac)     (Frac)        (e)         (Frac)  
--------------------------------------------------------------------------------
      1 Al    c    0.820965    0.663636    0.344471     3.00000    1.000000    
      2 Al    c    0.553116 *  0.764528 *  0.127501 *   3.00000    1.000000    
      3 Al    c    0.413462 *  0.330594 *  0.344467 *   3.00000    1.000000    
      4 Al    c    0.145613 *  0.229702 *  0.127501 *   3.00000    1.000000    
      5 Al    c    0.783635 *  0.061162 *  0.513088 *   3.00000    1.000000    
      6 Al    c    0.416685 *  0.092765 *  0.519842 *   3.00000    1.000000    
      7 Al    c    0.092726 *  0.373882 *  0.815049 *   3.00000    1.000000    
      8 Al    c    0.480405 *  0.769694 *  0.625050 *   3.00000    1.000000    
      9 Mg    c    0.723676 *  0.250854 *  0.127502 *   2.00000    1.000000    
     10 Mg    c    0.242903 *  0.684785 *  0.344464 *   2.00000    1.000000    
     11 Mg    c    0.121695 *  0.018214 *  0.625049 *   2.00000    1.000000    
     12 Mg    c    0.582880 *  0.376936 *  0.625049 *   2.00000    1.000000    
     13 O     c    0.690847 *  0.029667 *  0.344469 *  -2.00000    1.000000    
     14 O     c    0.275734 *  0.463598 *  0.127500 *  -2.00000    1.000000    
     15 O     c    0.259617 *  0.131468 *  0.344470 *  -2.00000    1.000000    
     16 O     c    0.706960 *  0.565403 *  0.127504 *  -2.00000    1.000000    
     17 O     c    0.497978 *  0.203505 *  0.127501 *  -2.00000    1.000000    
     18 O     c    0.065152 *  0.794864 *  0.127504 *  -2.00000    1.000000    
     19 O     c    0.468600 *  0.637441 *  0.344467 *  -2.00000    1.000000    
     20 O     c    0.033561 *  0.360932 *  0.344469 *  -2.00000    1.000000    
     21 O     c    0.783627 *  0.061158 *  0.737009 *  -2.00000    1.000000    
     22 O     c    0.832284 *  0.538880 *  0.510396 *  -2.00000    1.000000    
     23 O     c    0.398735 *  0.083979 *  0.357252 *  -2.00000    1.000000    
     24 O     c    0.677293 *  0.664157 *  0.408202 *  -2.00000    1.000000    
     25 O     c    0.677288 *  0.664155 *  0.841896 *  -2.00000    1.000000    
     26 O     c    0.397073 *  0.493724 *  0.520740 *  -2.00000    1.000000    
     27 O     c    0.397072 *  0.493717 *  0.729359 *  -2.00000    1.000000    
     28 O     c    0.832281 *  0.538876 *  0.739702 *  -2.00000    1.000000    
--------------------------------------------------------------------------------



********************************************************************************
*  General input information                                                   *
********************************************************************************

  Species output for all configurations : 

--------------------------------------------------------------------------------
  Species    Type    Atomic    Atomic    Charge       Radii (Angs)     Library
                     Number     Mass       (e)     Cova   Ionic  VDW   Symbol
--------------------------------------------------------------------------------
    Mg       Core       12      24.31   2.000000   1.100  0.000  1.640          
    Al       Core       13      26.98   3.000000   1.350  0.000  2.050          
    O        Core        8      16.00  -2.000000   0.730  0.000  1.360          
--------------------------------------------------------------------------------


  Lattice summation method               =    Ewald          (3-D)
                                         =    Parry          (2-D)
                                         =    Saunders et al (1-D)
  Accuracy factor for lattice sums       =   12.000


  Analytic derivatives to be used

  Time limit = Infinity

  Maximum range for interatomic potentials =    100000.000000 Angstroms

  General interatomic potentials :

--------------------------------------------------------------------------------
Atom  Types   Potential      Parameter       Value         Units   Cutoffs(Ang)
  1     2                                                            Min /  Max 
--------------------------------------------------------------------------------
O    c Mg   c Lennard       Lennard-Jones A  1.5000000    eV*Ang^m  0.000  6.000
                            Lennard-Jones B  0.0000000    eV*Ang^n  
                            Exponent m        12          None
                            Exponent n         6          None
--------------------------------------------------------------------------------
O    c Al   c Lennard       Lennard-Jones A  1.5000000    eV*Ang^m  0.000  6.000
                            Lennard-Jones B  0.0000000    eV*Ang^n  
                            Exponent m        12          None
                            Exponent n         6          None
--------------------------------------------------------------------------------
O    c O    c Lennard       Lennard-Jones A  1.5000000    eV*Ang^m  0.000  6.000
                            Lennard-Jones B  0.0000000    eV*Ang^n  
                            Exponent m        12          None
                            Exponent n         6          None
--------------------------------------------------------------------------------
Mg   c Mg   c Lennard       Lennard-Jones A  1.5000000    eV*Ang^m  0.000  6.000
                            Lennard-Jones B  0.0000000    eV*Ang^n  
                            Exponent m        12          None
                            Exponent n         6          None
--------------------------------------------------------------------------------
Mg   c Al   c Lennard       Lennard-Jones A  1.5000000    eV*Ang^m  0.000  6.000
                            Lennard-Jones B  0.0000000    eV*Ang^n  
                            Exponent m        12          None
                            Exponent n         6          None
--------------------------------------------------------------------------------
Al   c Al   c Lennard       Lennard-Jones A  1.5000000    eV*Ang^m  0.000  6.000
                            Lennard-Jones B  0.0000000    eV*Ang^n  
                            Exponent m        12          None
                            Exponent n         6          None
--------------------------------------------------------------------------------
O    c Mg   c Buckingham    Buckingham A     1428.5000    eV        0.000  7.000
                            Buckingham rho  0.29450000    Ang       
                            Buckingham C     0.0000000    eV*Ang^6  
--------------------------------------------------------------------------------
O    c Al   c Buckingham    Buckingham A     1114.9000    eV        0.000  7.000
                            Buckingham rho  0.31180000    Ang       
                            Buckingham C     0.0000000    eV*Ang^6  
--------------------------------------------------------------------------------
O    c O    c Buckingham    Buckingham A     2023.8000    eV        0.000  7.000
                            Buckingham rho  0.26740000    Ang       
                            Buckingham C     0.0000000    eV*Ang^6  
--------------------------------------------------------------------------------

********************************************************************************
*  Output for configuration   1                                                *
********************************************************************************


  Components of enthalpy : 

--------------------------------------------------------------------------------
  Interatomic potentials     =         511.50155784 eV    
  Monopole - monopole (real) =        -404.28594252 eV    
  Monopole - monopole (recip)=        -470.08868228 eV    
  Monopole - monopole (total)=        -874.37462480 eV    
  Pressure*volume            =         129.93249043 eV    
--------------------------------------------------------------------------------
  Total lattice enthalpy     =        -232.94057652 eV    
--------------------------------------------------------------------------------
  Total lattice enthalpy     =          -22475.2048 kJ/(mole unit cells)
--------------------------------------------------------------------------------


  Number of variables =       87

  Maximum number of calculations  =           850
  Maximum Hessian update interval =            10
  Maximum step size               =   1.000000000
  Maximum parameter tolerance     =   0.000010000
  Maximum function  tolerance     =   0.000010000
  Maximum gradient  tolerance     =   0.001000000
  Maximum gradient  component     =   0.010000000

  Cell parameters to be optimised using strains

  Conjugate gradient optimiser to be used

  Lower half triangular hessian to be used

  Minimiser to switch to RFO
  When gradient norm is less than     0.010000

  Start of bulk optimisation :

  Cycle:      0 Energy:      -232.940577  Gnorm:     31.726463  CPU:    0.040
  Cycle:      1 Energy:      -381.935240  Gnorm:     12.624680  CPU:    0.117
  Cycle:      2 Energy:      -465.997671  Gnorm:     14.540979  CPU:    0.194
  Cycle:      3 Energy:      -490.016379  Gnorm:      5.630844  CPU:    0.273
  Cycle:      4 Energy:      -524.624203  Gnorm:      4.425293  CPU:    0.349
  Cycle:      5 Energy:      -552.186737  Gnorm:      4.310942  CPU:    0.426
  Cycle:      6 Energy:      -566.170993  Gnorm:      3.025038  CPU:    0.479
  Cycle:      7 Energy:      -576.078815  Gnorm:      3.176545  CPU:    0.544
  Cycle:      8 Energy:      -581.893161  Gnorm:      2.307899  CPU:    0.598
  Cycle:      9 Energy:      -591.211971  Gnorm:      2.173705  CPU:    0.663
  Cycle:     10 Energy:      -595.594653  Gnorm:      1.365820  CPU:    0.717
  Cycle:     11 Energy:      -601.711943  Gnorm:      2.042686  CPU:    0.783
  Cycle:     12 Energy:      -606.155753  Gnorm:      1.578866  CPU:    0.836
  Cycle:     13 Energy:      -609.525461  Gnorm:      1.206498  CPU:    0.890
  Cycle:     14 Energy:      -611.547095  Gnorm:      1.012575  CPU:    0.957
  Cycle:     15 Energy:      -613.533288  Gnorm:      1.120408  CPU:    1.023
  Cycle:     16 Energy:      -615.469941  Gnorm:      0.957531  CPU:    1.077
  Cycle:     17 Energy:      -616.989142  Gnorm:      0.935906  CPU:    1.144
  Cycle:     18 Energy:      -618.329512  Gnorm:      0.679459  CPU:    1.211
  Cycle:     19 Energy:      -619.011687  Gnorm:      0.660494  CPU:    1.277
  Cycle:     20 Energy:      -619.329879  Gnorm:      0.444368  CPU:    1.332
  Cycle:     21 Energy:      -619.867361  Gnorm:      0.533996  CPU:    1.399
  Cycle:     22 Energy:      -620.494183  Gnorm:      0.587947  CPU:    1.490
  Cycle:     23 Energy:      -621.196759  Gnorm:      0.593125  CPU:    1.569
  Cycle:     24 Energy:      -621.974765  Gnorm:      0.632669  CPU:    1.666
  Cycle:     25 Energy:      -622.704902  Gnorm:      0.611788  CPU:    1.745
  Cycle:     26 Energy:      -623.281620  Gnorm:      0.674933  CPU:    1.824
  Cycle:     27 Energy:      -624.171958  Gnorm:      0.592937  CPU:    1.922
  Cycle:     28 Energy:      -624.969729  Gnorm:      0.645704  CPU:    2.021
  Cycle:     29 Energy:      -625.696438  Gnorm:      0.737877  CPU:    2.130
  Cycle:     30 Energy:      -626.303176  Gnorm:      0.670629  CPU:    2.249
  Cycle:     31 Energy:      -627.260032  Gnorm:      0.555357  CPU:    2.396
  Cycle:     32 Energy:      -628.112938  Gnorm:      0.600070  CPU:    2.543
  Cycle:     33 Energy:      -628.816287  Gnorm:      0.578840  CPU:    2.662
  Cycle:     34 Energy:      -629.615755  Gnorm:      0.611316  CPU:    2.809
  Cycle:     35 Energy:      -630.454062  Gnorm:      0.631550  CPU:    2.957
  Cycle:     36 Energy:      -631.295725  Gnorm:      0.719294  CPU:    3.105
  Cycle:     37 Energy:      -632.033113  Gnorm:      0.592731  CPU:    3.224
  Cycle:     38 Energy:      -632.567186  Gnorm:      0.461763  CPU:    3.373
  Cycle:     39 Energy:      -633.135359  Gnorm:      0.478950  CPU:    3.521
  Cycle:     40 Energy:      -633.403597  Gnorm:      0.375562  CPU:    3.641
  Cycle:     41 Energy:      -633.669238  Gnorm:      0.360408  CPU:    3.789
  Cycle:     42 Energy:      -634.008452  Gnorm:      0.394965  CPU:    3.936
  Cycle:     43 Energy:      -634.309686  Gnorm:      0.361366  CPU:    4.055
  Cycle:     44 Energy:      -634.610681  Gnorm:      0.331509  CPU:    4.200
  Cycle:     45 Energy:      -634.885182  Gnorm:      0.369450  CPU:    4.346
  Cycle:     46 Energy:      -635.258154  Gnorm:      0.402285  CPU:    4.491
  Cycle:     47 Energy:      -635.674441  Gnorm:      0.399676  CPU:    4.635
  Cycle:     48 Energy:      -636.104225  Gnorm:      0.394261  CPU:    4.780
  Cycle:     49 Energy:      -636.442974  Gnorm:      0.444721  CPU:    4.896
  Cycle:     50 Energy:      -636.669445  Gnorm:      0.331177  CPU:    5.013
  Cycle:     51 Energy:      -636.949775  Gnorm:      0.295797  CPU:    5.157
  Cycle:     52 Energy:      -637.165607  Gnorm:      0.312311  CPU:    5.302
  Cycle:     53 Energy:      -637.383522  Gnorm:      0.295872  CPU:    5.419
  Cycle:     54 Energy:      -637.586349  Gnorm:      0.279644  CPU:    5.564
  Cycle:     55 Energy:      -637.857410  Gnorm:      0.318400  CPU:    5.709
  Cycle:     56 Energy:      -638.242305  Gnorm:      0.469497  CPU:    5.855
  Cycle:     57 Energy:      -638.690354  Gnorm:      0.506756  CPU:    5.974
  Cycle:     58 Energy:      -639.163822  Gnorm:      0.478546  CPU:    6.092
  Cycle:     59 Energy:      -639.659582  Gnorm:      0.469590  CPU:    6.240
  Cycle:     60 Energy:      -639.950013  Gnorm:      0.393335  CPU:    6.359
  Cycle:     61 Energy:      -640.220471  Gnorm:      0.359534  CPU:    6.506
  Cycle:     62 Energy:      -640.633160  Gnorm:      0.365947  CPU:    6.653
  Cycle:     63 Energy:      -640.872941  Gnorm:      0.281067  CPU:    6.771
  Cycle:     64 Energy:      -641.046478  Gnorm:      0.273160  CPU:    6.918
  Cycle:     65 Energy:      -641.271922  Gnorm:      0.318026  CPU:    7.064
  Cycle:     66 Energy:      -641.492244  Gnorm:      0.329762  CPU:    7.182
  Cycle:     67 Energy:      -641.756548  Gnorm:      0.341696  CPU:    7.329
  Cycle:     68 Energy:      -641.942506  Gnorm:      0.329405  CPU:    7.447
  Cycle:     69 Energy:      -642.169970  Gnorm:      0.262392  CPU:    7.594
  Cycle:     70 Energy:      -642.270340  Gnorm:      0.219270  CPU:    7.713
  Cycle:     71 Energy:      -642.356122  Gnorm:      0.213023  CPU:    7.861
  Cycle:     72 Energy:      -642.442537  Gnorm:      0.191651  CPU:    8.008
  Cycle:     73 Energy:      -642.513194  Gnorm:      0.141116  CPU:    8.155
  Cycle:     74 Energy:      -642.557766  Gnorm:      0.122834  CPU:    8.302
  Cycle:     75 Energy:      -642.587663  Gnorm:      0.109283  CPU:    8.421
  Cycle:     76 Energy:      -642.615941  Gnorm:      0.110338  CPU:    8.568
  Cycle:     77 Energy:      -642.644257  Gnorm:      0.105809  CPU:    8.715
  Cycle:     78 Energy:      -642.663284  Gnorm:      0.101449  CPU:    8.834
  Cycle:     79 Energy:      -642.680711  Gnorm:      0.097838  CPU:    8.981
  Cycle:     80 Energy:      -642.691926  Gnorm:      0.075151  CPU:    9.100
  Cycle:     81 Energy:      -642.702453  Gnorm:      0.078518  CPU:    9.219
  Cycle:     82 Energy:      -642.717512  Gnorm:      0.080952  CPU:    9.367
  Cycle:     83 Energy:      -642.732302  Gnorm:      0.080281  CPU:    9.515
  Cycle:     84 Energy:      -642.747618  Gnorm:      0.092827  CPU:    9.662
  Cycle:     85 Energy:      -642.778773  Gnorm:      0.114633  CPU:    9.810
  Cycle:     86 Energy:      -642.825825  Gnorm:      0.141395  CPU:    9.929
  Cycle:     87 Energy:      -642.888278  Gnorm:      0.171576  CPU:   10.010
  Cycle:     88 Energy:      -642.965262  Gnorm:      0.223311  CPU:   10.091
  Cycle:     89 Energy:      -643.057515  Gnorm:      0.315024  CPU:   10.172
  Cycle:     90 Energy:      -643.171279  Gnorm:      0.303575  CPU:   10.253
  Cycle:     91 Energy:      -643.341453  Gnorm:      0.275135  CPU:   10.354
  Cycle:     92 Energy:      -643.476787  Gnorm:      0.200737  CPU:   10.454
  Cycle:     93 Energy:      -643.560838  Gnorm:      0.171754  CPU:   10.554
  Cycle:     94 Energy:      -643.613544  Gnorm:      0.169168  CPU:   10.636
  Cycle:     95 Energy:      -643.669034  Gnorm:      0.137578  CPU:   10.736
  Cycle:     96 Energy:      -643.721034  Gnorm:      0.155431  CPU:   10.836
  Cycle:     97 Energy:      -643.763130  Gnorm:      0.186745  CPU:   10.918
  Cycle:     98 Energy:      -643.817953  Gnorm:      0.166128  CPU:   11.018
  Cycle:     99 Energy:      -643.904890  Gnorm:      0.217248  CPU:   11.118
  Cycle:    100 Energy:      -643.948571  Gnorm:      0.153778  CPU:   11.199
  Cycle:    101 Energy:      -644.002760  Gnorm:      0.172225  CPU:   11.299
  Cycle:    102 Energy:      -644.064302  Gnorm:      0.225887  CPU:   11.399
  Cycle:    103 Energy:      -644.135419  Gnorm:      0.197411  CPU:   11.480
  Cycle:    104 Energy:      -644.258405  Gnorm:      0.244935  CPU:   11.580
  Cycle:    105 Energy:      -644.377864  Gnorm:      0.303444  CPU:   11.661
  Cycle:    106 Energy:      -644.510746  Gnorm:      0.305115  CPU:   11.743
  Cycle:    107 Energy:      -644.704742  Gnorm:      0.316648  CPU:   11.843
  Cycle:    108 Energy:      -644.845183  Gnorm:      0.266700  CPU:   11.924
  Cycle:    109 Energy:      -644.981852  Gnorm:      0.288328  CPU:   12.025
  Cycle:    110 Energy:      -645.056049  Gnorm:      0.242149  CPU:   12.107
  Cycle:    111 Energy:      -645.172876  Gnorm:      0.259176  CPU:   12.207
  Cycle:    112 Energy:      -645.277772  Gnorm:      0.228474  CPU:   12.289
  Cycle:    113 Energy:      -645.344711  Gnorm:      0.178872  CPU:   12.370
  Cycle:    114 Energy:      -645.426477  Gnorm:      0.177375  CPU:   12.471
  Cycle:    115 Energy:      -645.496166  Gnorm:      0.150306  CPU:   12.552
  Cycle:    116 Energy:      -645.560071  Gnorm:      0.190816  CPU:   12.653
  Cycle:    117 Energy:      -645.596128  Gnorm:      0.147499  CPU:   12.735
  Cycle:    118 Energy:      -645.636227  Gnorm:      0.146349  CPU:   12.835
  Cycle:    119 Energy:      -645.670713  Gnorm:      0.168726  CPU:   12.917
  Cycle:    120 Energy:      -645.693947  Gnorm:      0.117871  CPU:   12.998
  Cycle:    121 Energy:      -645.715194  Gnorm:      0.105719  CPU:   13.099
  Cycle:    122 Energy:      -645.737642  Gnorm:      0.140785  CPU:   13.200
  Cycle:    123 Energy:      -645.770502  Gnorm:      0.123340  CPU:   13.301
  Cycle:    124 Energy:      -645.807805  Gnorm:      0.124036  CPU:   13.401
  Cycle:    125 Energy:      -645.847365  Gnorm:      0.129173  CPU:   13.502
  Cycle:    126 Energy:      -645.871641  Gnorm:      0.123035  CPU:   13.584
  Cycle:    127 Energy:      -645.903193  Gnorm:      0.144987  CPU:   13.684
  Cycle:    128 Energy:      -645.934677  Gnorm:      0.129455  CPU:   13.766
  Cycle:    129 Energy:      -645.956469  Gnorm:      0.130337  CPU:   13.847
  Cycle:    130 Energy:      -645.972102  Gnorm:      0.102187  CPU:   13.929
  Cycle:    131 Energy:      -645.989001  Gnorm:      0.098388  CPU:   14.010
  Cycle:    132 Energy:      -646.005012  Gnorm:      0.091417  CPU:   14.092
  Cycle:    133 Energy:      -646.018604  Gnorm:      0.099253  CPU:   14.173
  Cycle:    134 Energy:      -646.040147  Gnorm:      0.085268  CPU:   14.255
  Cycle:    135 Energy:      -646.054572  Gnorm:      0.075001  CPU:   14.336
  Cycle:    136 Energy:      -646.073079  Gnorm:      0.067643  CPU:   14.437
  Cycle:    137 Energy:      -646.087236  Gnorm:      0.080886  CPU:   14.537
  Cycle:    138 Energy:      -646.095172  Gnorm:      0.091774  CPU:   14.619
  Cycle:    139 Energy:      -646.124833  Gnorm:      0.106479  CPU:   14.719
  Cycle:    140 Energy:      -646.140068  Gnorm:      0.080565  CPU:   14.800
  Cycle:    141 Energy:      -646.146506  Gnorm:      0.064445  CPU:   14.882
  Cycle:    142 Energy:      -646.154269  Gnorm:      0.058909  CPU:   14.963
  Cycle:    143 Energy:      -646.162164  Gnorm:      0.068776  CPU:   15.063
  Cycle:    144 Energy:      -646.169195  Gnorm:      0.061098  CPU:   15.144
  Cycle:    145 Energy:      -646.176850  Gnorm:      0.057949  CPU:   15.244
  Cycle:    146 Energy:      -646.185875  Gnorm:      0.055798  CPU:   15.344
  Cycle:    147 Energy:      -646.192991  Gnorm:      0.061180  CPU:   15.425
  Cycle:    148 Energy:      -646.198182  Gnorm:      0.063875  CPU:   15.506
  Cycle:    149 Energy:      -646.204258  Gnorm:      0.054139  CPU:   15.606
  Cycle:    150 Energy:      -646.208794  Gnorm:      0.055079  CPU:   15.687
  Cycle:    151 Energy:      -646.213055  Gnorm:      0.056021  CPU:   15.768
  Cycle:    152 Energy:      -646.218650  Gnorm:      0.046717  CPU:   15.849
  Cycle:    153 Energy:      -646.224162  Gnorm:      0.053618  CPU:   15.948
  Cycle:    154 Energy:      -646.228679  Gnorm:      0.050529  CPU:   16.030
  Cycle:    155 Energy:      -646.233446  Gnorm:      0.046037  CPU:   16.129
  Cycle:    156 Energy:      -646.238682  Gnorm:      0.042717  CPU:   16.210
  Cycle:    157 Energy:      -646.243240  Gnorm:      0.043056  CPU:   16.291
  Cycle:    158 Energy:      -646.249271  Gnorm:      0.059584  CPU:   16.372
  Cycle:    159 Energy:      -646.255229  Gnorm:      0.087815  CPU:   16.453
  Cycle:    160 Energy:      -646.260455  Gnorm:      0.053648  CPU:   16.534
  Cycle:    161 Energy:      -646.265139  Gnorm:      0.037939  CPU:   16.615
  Cycle:    162 Energy:      -646.268600  Gnorm:      0.036792  CPU:   16.697
  Cycle:    163 Energy:      -646.272313  Gnorm:      0.039526  CPU:   16.778
  Cycle:    164 Energy:      -646.275289  Gnorm:      0.040868  CPU:   16.859
  Cycle:    165 Energy:      -646.278170  Gnorm:      0.040105  CPU:   16.940
  Cycle:    166 Energy:      -646.281504  Gnorm:      0.034062  CPU:   17.040
  Cycle:    167 Energy:      -646.284842  Gnorm:      0.036009  CPU:   17.140
  Cycle:    168 Energy:      -646.287837  Gnorm:      0.029408  CPU:   17.220
  Cycle:    169 Energy:      -646.294984  Gnorm:      0.104997  CPU:   17.320
  Cycle:    170 Energy:      -646.300329  Gnorm:      0.028776  CPU:   17.401
  Cycle:    171 Energy:      -646.302551  Gnorm:      0.031599  CPU:   17.481
  Cycle:    172 Energy:      -646.304245  Gnorm:      0.033993  CPU:   17.562
  Cycle:    173 Energy:      -646.306387  Gnorm:      0.029239  CPU:   17.643
  Cycle:    174 Energy:      -646.308430  Gnorm:      0.026401  CPU:   17.724
  Cycle:    175 Energy:      -646.310658  Gnorm:      0.029980  CPU:   17.805
  Cycle:    176 Energy:      -646.312109  Gnorm:      0.030788  CPU:   17.886
  Cycle:    177 Energy:      -646.313694  Gnorm:      0.028247  CPU:   17.967
  Cycle:    178 Energy:      -646.315183  Gnorm:      0.032349  CPU:   18.048
  Cycle:    179 Energy:      -646.316539  Gnorm:      0.028777  CPU:   18.129
  Cycle:    180 Energy:      -646.317568  Gnorm:      0.028889  CPU:   18.209
  Cycle:    181 Energy:      -646.318917  Gnorm:      0.026210  CPU:   18.291
  Cycle:    182 Energy:      -646.320262  Gnorm:      0.028608  CPU:   18.371
  Cycle:    183 Energy:      -646.321442  Gnorm:      0.025554  CPU:   18.453
  Cycle:    184 Energy:      -646.322866  Gnorm:      0.023530  CPU:   18.533
  Cycle:    185 Energy:      -646.324048  Gnorm:      0.021492  CPU:   18.615
  Cycle:    186 Energy:      -646.325267  Gnorm:      0.020289  CPU:   18.695
  Cycle:    187 Energy:      -646.326603  Gnorm:      0.020392  CPU:   18.776
  Cycle:    188 Energy:      -646.327251  Gnorm:      0.025683  CPU:   18.857
  Cycle:    189 Energy:      -646.328862  Gnorm:      0.036612  CPU:   18.957
  Cycle:    190 Energy:      -646.330184  Gnorm:      0.023651  CPU:   19.038
  Cycle:    191 Energy:      -646.330738  Gnorm:      0.018133  CPU:   19.119
  Cycle:    192 Energy:      -646.331667  Gnorm:      0.017593  CPU:   19.218
  Cycle:    193 Energy:      -646.332363  Gnorm:      0.020755  CPU:   19.299
  Cycle:    194 Energy:      -646.333004  Gnorm:      0.017748  CPU:   19.380
  Cycle:    195 Energy:      -646.333806  Gnorm:      0.017207  CPU:   19.480
  Cycle:    196 Energy:      -646.334646  Gnorm:      0.017808  CPU:   19.561
  Cycle:    197 Energy:      -646.335229  Gnorm:      0.021052  CPU:   19.642
  Cycle:    198 Energy:      -646.335823  Gnorm:      0.017649  CPU:   19.723
  Cycle:    199 Energy:      -646.336351  Gnorm:      0.017179  CPU:   19.804
  Cycle:    200 Energy:      -646.336726  Gnorm:      0.016669  CPU:   19.885
  Cycle:    201 Energy:      -646.337255  Gnorm:      0.017735  CPU:   19.966
  Cycle:    202 Energy:      -646.337735  Gnorm:      0.016430  CPU:   20.046
  Cycle:    203 Energy:      -646.338204  Gnorm:      0.016867  CPU:   20.127
  Cycle:    204 Energy:      -646.338653  Gnorm:      0.014386  CPU:   20.208
  Cycle:    205 Energy:      -646.339159  Gnorm:      0.012740  CPU:   20.289
  Cycle:    206 Energy:      -646.339609  Gnorm:      0.012282  CPU:   20.370
  Cycle:    207 Energy:      -646.340066  Gnorm:      0.012077  CPU:   20.451
  Cycle:    208 Energy:      -646.340361  Gnorm:      0.016015  CPU:   20.531
  Cycle:    209 Energy:      -646.340824  Gnorm:      0.021750  CPU:   20.612
  Cycle:    210 Energy:      -646.341230  Gnorm:      0.014457  CPU:   20.693
  Cycle:    211 Energy:      -646.341469  Gnorm:      0.010906  CPU:   20.774
  Cycle:    212 Energy:      -646.341801  Gnorm:      0.010404  CPU:   20.855
  Cycle:    213 Energy:      -646.342114  Gnorm:      0.010337  CPU:   20.936
  Cycle:    214 Energy:      -646.342433  Gnorm:      0.010910  CPU:   21.016
  Cycle:    215 Energy:      -646.342655  Gnorm:      0.012509  CPU:   21.097
  Cycle:    216 Energy:      -646.342920  Gnorm:      0.010896  CPU:   21.178
  Cycle:    217 Energy:      -646.343143  Gnorm:      0.012522  CPU:   21.278
  Cycle:    218 Energy:      -646.343367  Gnorm:      0.010548  CPU:   21.358
  Cycle:    219 Energy:      -646.343527  Gnorm:      0.010453  CPU:   21.439
  Cycle:    220 Energy:      -646.343671  Gnorm:      0.009704  CPU:   21.520
  ** Hessian has required structure
  Cycle:    221 Energy:      -646.345543  Gnorm:      0.007004  CPU:   21.796
  ** Hessian has required structure
  Cycle:    222 Energy:      -646.347105  Gnorm:      0.003504  CPU:   21.933
  ** Hessian has required structure
  Cycle:    223 Energy:      -646.347613  Gnorm:      0.000363  CPU:   22.052
  ** Hessian has required structure


  **** Optimisation achieved ****


  Final enthalpy =    -646.34761400 eV      
  Final Gnorm    =       0.00003344

  Components of enthalpy : 

--------------------------------------------------------------------------------
  Interatomic potentials     =         221.98548722 eV    
  Monopole - monopole (real) =        -507.71273764 eV    
  Monopole - monopole (recip)=        -489.17744479 eV    
  Monopole - monopole (total)=        -996.89018243 eV    
  Pressure*volume            =         128.55708121 eV    
--------------------------------------------------------------------------------
  Total lattice enthalpy     =        -646.34761400 eV    
--------------------------------------------------------------------------------
  Total lattice enthalpy     =          -62362.6644 kJ/(mole unit cells)
--------------------------------------------------------------------------------

  Final fractional coordinates of atoms :

--------------------------------------------------------------------------------
   No.  Atomic        x           y          z          Radius
        Label       (Frac)      (Frac)     (Frac)       (Angs) 
--------------------------------------------------------------------------------
     1  Al    c     0.820965    0.663636    0.344471    0.000000
     2  Al    c     0.634676    0.923779    0.186440    0.000000
     3  Al    c     0.346102    0.386377    0.487190    0.000000
     4  Al    c     0.135160    0.168187    0.087478    0.000000
     5  Al    c     0.947080    0.423722    0.768824    0.000000
     6  Al    c     0.463340    0.099629    0.706590    0.000000
     7  Al    c     0.176161    0.596006    0.099473    0.000000
     8  Al    c     0.570602    0.666080    0.798586    0.000000
     9  Mg    c     0.842559    0.150760    0.527377    0.000000
    10  Mg    c     0.262990    0.860792    0.373903    0.000000
    11  Mg    c     0.997612    0.881041    0.749695    0.000000
    12  Mg    c     0.582563    0.298878    0.102205    0.000000
    13  O     c     0.086027    0.267499    0.690987    0.000000
    14  O     c     0.347881    0.487470    0.092999    0.000000
    15  O     c     0.255034    0.111183    0.445724    0.000000
    16  O     c     0.607688    0.417997    0.384709    0.000000
    17  O     c     0.391913    0.855987    0.028193    0.000000
    18  O     c     0.062644    0.896397    0.124227    0.000000
    19  O     c     0.448489    0.645744    0.505099    0.000000
    20  O     c     0.992920    0.537267    0.385991    0.000000
    21  O     c     0.704958    0.179512    0.858817    0.000000
    22  O     c     0.763553    0.566388    0.769419    0.000000
    23  O     c     0.556660    0.034984    0.433423    0.000000
    24  O     c     0.814891    0.903861    0.429377    0.000000
    25  O     c     0.725643    0.818638    0.981383    0.000000
    26  O     c     0.378596    0.239038    0.864561    0.000000
    27  O     c     0.125093    0.686762    0.767092    0.000000
    28  O     c     0.988015    0.307397    0.122212    0.000000
--------------------------------------------------------------------------------

  Final Cartesian lattice vectors (Angstroms) :

        6.301122   -3.500410    0.113599
        0.225541    7.195431    0.910683
        0.699416    1.095634    4.661582


  Final cell parameters and derivatives :

--------------------------------------------------------------------------------
       a            7.209016 Angstrom     dE/de1(xx)     0.000010 eV/strain
       b            7.256338 Angstrom     dE/de2(yy)     0.000144 eV/strain
       c            4.839415 Angstrom     dE/de3(zz)    -0.000044 eV/strain
       alpha       69.520042 Degrees      dE/de4(yz)     0.000815 eV/strain
       beta        88.190721 Degrees      dE/de5(xz)    -0.000300 eV/strain
       gamma      116.893870 Degrees      dE/de6(xy)     0.000528 eV/strain
--------------------------------------------------------------------------------

  Primitive cell volume =           205.972742 Angs**3

  Density of cell =      4.587960 g/cm**3

  Non-primitive cell volume =           205.972742 Angs**3


  Final internal derivatives :

--------------------------------------------------------------------------------
   No.  Atomic          a             b             c           Radius
        Label          (eV)          (eV)          (eV)        (eV/Angs)
--------------------------------------------------------------------------------
      1 Al    c       0.000000      0.000000      0.000000      0.000000
      2 Al    c      -0.000059      0.000058     -0.000037      0.000000
      3 Al    c      -0.000171      0.000358      0.000143      0.000000
      4 Al    c      -0.000232     -0.000036      0.000066      0.000000
      5 Al    c       0.000571     -0.000827      0.000041      0.000000
      6 Al    c       0.000504     -0.000542      0.000070      0.000000
      7 Al    c      -0.000442      0.000396      0.000147      0.000000
      8 Al    c      -0.000095      0.000291     -0.000106      0.000000
      9 Mg    c      -0.000192      0.000094     -0.000055      0.000000
     10 Mg    c       0.000031     -0.000132      0.000035      0.000000
     11 Mg    c       0.000037      0.000049      0.000140      0.000000
     12 Mg    c       0.000250     -0.000138      0.000374      0.000000
     13 O     c       0.000638     -0.000161     -0.000072      0.000000
     14 O     c       0.000288     -0.000273      0.000170      0.000000
     15 O     c      -0.000113     -0.000062      0.000152      0.000000
     16 O     c      -0.000252     -0.000285      0.000214      0.000000
     17 O     c       0.000054     -0.000008     -0.000003      0.000000
     18 O     c      -0.000157      0.000288     -0.000094      0.000000
     19 O     c       0.000033      0.000054     -0.000020      0.000000
     20 O     c       0.000157      0.000126      0.000091      0.000000
     21 O     c      -0.000084      0.000090      0.000110      0.000000
     22 O     c      -0.001071      0.000653     -0.000754      0.000000
     23 O     c      -0.000317      0.000230      0.000033      0.000000
     24 O     c       0.000117     -0.000208     -0.000033      0.000000
     25 O     c      -0.000829     -0.000004     -0.000772      0.000000
     26 O     c      -0.000127      0.000219     -0.000003      0.000000
     27 O     c      -0.000042      0.000133      0.000057      0.000000
     28 O     c      -0.000018     -0.000158      0.000066      0.000000
--------------------------------------------------------------------------------
  Maximum abs         0.001071      0.000827      0.000772      0.000000
--------------------------------------------------------------------------------


  Time to end of optimisation =      22.1521 seconds


  Peak dynamic memory used =       2.03 MB 


  Timing analysis for GULP :

--------------------------------------------------------------------------------
  Task / Subroutine                                          Time (Seconds)
--------------------------------------------------------------------------------
  Calculation of reciprocal space energy and derivatives          0.6262
  Calculation of real space energy and derivatives               21.3943
  Calculation and manipulation of Hessian matrix                  0.0755
  Global summation overhead                                       0.0013
--------------------------------------------------------------------------------
  Total CPU time                                                 22.1521
--------------------------------------------------------------------------------


  Job Finished at 15:57.50 11th June       2024                               

