********************************************************************************
*                       GENERAL UTILITY LATTICE PROGRAM                        *
*                                 Julian Gale                                  *
*                       Curtin Institute for Computation                       *
*                    School of Molecular and Life Sciences                     *
*                    Curtin University, Western Australia                      *
********************************************************************************
* Version = 6.0.0 * Last modified =  12th July 2021                            *
********************************************************************************
*  optimise     - perform optimisation run                                     *
*  conp         - constant pressure calculation                                *
*  nosymmetry   - turn off symmetry after initial structure generation         *
*  conjugate    - use conjugate gradients minimiser                            *
********************************************************************************

  Job Started  at 16:01.49 11th June       2024                               

  Number of CPUs =     1


  Total number of configurations input =      1

********************************************************************************
*  Input for Configuration =   1                                               *
********************************************************************************

  Formula = Al8Mg4O16                                                   

  Number of irreducible atoms/shells =      28


  Total number atoms/shells =      28

  Dimensionality = 3               :  Bulk   



  Cartesian lattice vectors (Angstroms) :

        5.108841    0.001621   -0.666357
       -0.000503    9.117342    0.000071
       -0.626491    0.000455    4.551029

  Cell parameters (Angstroms/Degrees):

  a =       5.1521    alpha =  89.9935
  b =       9.1173    beta  = 105.2693
  c =       4.5939    gamma =  89.9852

  Initial cell volume =         208.176407 Angs**3

  Temperature of configuration =   0.00     K 

  Pressure of configuration =       100.000 GPa 

  Fractional coordinates of asymmetric unit :

--------------------------------------------------------------------------------
   No.  Atomic       x           y          z         Charge      Occupancy
        Label      (Frac)      (Frac)     (Frac)        (e)         (Frac)  
--------------------------------------------------------------------------------
      1 Al    c    0.412368    0.450278    0.309522     3.00000    1.000000    
      2 Al    c    0.169786 *  0.826792 *  0.370624 *   3.00000    1.000000    
      3 Al    c    0.687409 *  0.127197 *  0.350330 *   3.00000    1.000000    
      4 Al    c    0.920549 *  0.505650 *  0.294613 *   3.00000    1.000000    
      5 Al    c    0.869894 *  0.362785 *  0.533956 *   3.00000    1.000000    
      6 Al    c    0.082901 *  0.456376 *  0.827628 *   3.00000    1.000000    
      7 Al    c    0.193855 *  0.984517 *  0.998443 *   3.00000    1.000000    
      8 Al    c    0.595560 *  0.969043 *  0.827627 *   3.00000    1.000000    
      9 Mg    c    0.139322 *  0.142966 *  0.203635 *   2.00000    1.000000    
     10 Mg    c    0.649546 *  0.811609 *  0.243946 *   2.00000    1.000000    
     11 Mg    c    0.357217 *  0.875454 *  0.533938 *   2.00000    1.000000    
     12 Mg    c    0.894335 *  0.858037 *  0.581513 *   2.00000    1.000000    
     13 O     c    0.434899 *  0.253569 *  0.495333 *  -2.00000    1.000000    
     14 O     c    0.935951 *  0.705631 *  0.108874 *  -2.00000    1.000000    
     15 O     c    0.594038 *  0.481638 *  0.021371 *  -2.00000    1.000000    
     16 O     c    0.739011 *  0.996045 *  0.059906 *  -2.00000    1.000000    
     17 O     c    0.381154 *  0.675171 *  0.262173 *  -2.00000    1.000000    
     18 O     c    0.200267 *  0.953296 *  0.059250 *  -2.00000    1.000000    
     19 O     c    0.102577 *  0.444299 *  0.030031 *  -2.00000    1.000000    
     20 O     c    0.890232 *  0.274698 *  0.273734 *  -2.00000    1.000000    
     21 O     c    0.117259 *  0.800139 *  0.832522 *  -2.00000    1.000000    
     22 O     c    0.080607 *  0.119521 *  0.849620 *  -2.00000    1.000000    
     23 O     c    0.381681 *  0.345373 *  0.581509 *  -2.00000    1.000000    
     24 O     c    0.706526 *  0.471849 *  0.998448 *  -2.00000    1.000000    
     25 O     c    0.629924 *  0.287471 *  0.832525 *  -2.00000    1.000000    
     26 O     c    0.755407 *  0.114231 *  0.688401 *  -2.00000    1.000000    
     27 O     c    0.593285 *  0.632188 *  0.849622 *  -2.00000    1.000000    
     28 O     c    0.242746 *  0.626902 *  0.688403 *  -2.00000    1.000000    
--------------------------------------------------------------------------------



********************************************************************************
*  General input information                                                   *
********************************************************************************

  Species output for all configurations : 

--------------------------------------------------------------------------------
  Species    Type    Atomic    Atomic    Charge       Radii (Angs)     Library
                     Number     Mass       (e)     Cova   Ionic  VDW   Symbol
--------------------------------------------------------------------------------
    Mg       Core       12      24.31   2.000000   1.100  0.000  1.640          
    Al       Core       13      26.98   3.000000   1.350  0.000  2.050          
    O        Core        8      16.00  -2.000000   0.730  0.000  1.360          
--------------------------------------------------------------------------------


  Lattice summation method               =    Ewald          (3-D)
                                         =    Parry          (2-D)
                                         =    Saunders et al (1-D)
  Accuracy factor for lattice sums       =   12.000


  Analytic derivatives to be used

  Time limit = Infinity

  Maximum range for interatomic potentials =    100000.000000 Angstroms

  General interatomic potentials :

--------------------------------------------------------------------------------
Atom  Types   Potential      Parameter       Value         Units   Cutoffs(Ang)
  1     2                                                            Min /  Max 
--------------------------------------------------------------------------------
O    c Mg   c Lennard       Lennard-Jones A  1.5000000    eV*Ang^m  0.000  6.000
                            Lennard-Jones B  0.0000000    eV*Ang^n  
                            Exponent m        12          None
                            Exponent n         6          None
--------------------------------------------------------------------------------
O    c Al   c Lennard       Lennard-Jones A  1.5000000    eV*Ang^m  0.000  6.000
                            Lennard-Jones B  0.0000000    eV*Ang^n  
                            Exponent m        12          None
                            Exponent n         6          None
--------------------------------------------------------------------------------
O    c O    c Lennard       Lennard-Jones A  1.5000000    eV*Ang^m  0.000  6.000
                            Lennard-Jones B  0.0000000    eV*Ang^n  
                            Exponent m        12          None
                            Exponent n         6          None
--------------------------------------------------------------------------------
Mg   c Mg   c Lennard       Lennard-Jones A  1.5000000    eV*Ang^m  0.000  6.000
                            Lennard-Jones B  0.0000000    eV*Ang^n  
                            Exponent m        12          None
                            Exponent n         6          None
--------------------------------------------------------------------------------
Mg   c Al   c Lennard       Lennard-Jones A  1.5000000    eV*Ang^m  0.000  6.000
                            Lennard-Jones B  0.0000000    eV*Ang^n  
                            Exponent m        12          None
                            Exponent n         6          None
--------------------------------------------------------------------------------
Al   c Al   c Lennard       Lennard-Jones A  1.5000000    eV*Ang^m  0.000  6.000
                            Lennard-Jones B  0.0000000    eV*Ang^n  
                            Exponent m        12          None
                            Exponent n         6          None
--------------------------------------------------------------------------------
O    c Mg   c Buckingham    Buckingham A     1428.5000    eV        0.000  7.000
                            Buckingham rho  0.29450000    Ang       
                            Buckingham C     0.0000000    eV*Ang^6  
--------------------------------------------------------------------------------
O    c Al   c Buckingham    Buckingham A     1114.9000    eV        0.000  7.000
                            Buckingham rho  0.31180000    Ang       
                            Buckingham C     0.0000000    eV*Ang^6  
--------------------------------------------------------------------------------
O    c O    c Buckingham    Buckingham A     2023.8000    eV        0.000  7.000
                            Buckingham rho  0.26740000    Ang       
                            Buckingham C     0.0000000    eV*Ang^6  
--------------------------------------------------------------------------------

********************************************************************************
*  Output for configuration   1                                                *
********************************************************************************


  Components of enthalpy : 

--------------------------------------------------------------------------------
  Interatomic potentials     =      108339.79523550 eV    
  Monopole - monopole (real) =        -275.94917954 eV    
  Monopole - monopole (recip)=        -406.40240071 eV    
  Monopole - monopole (total)=        -682.35158025 eV    
  Pressure*volume            =         129.93249044 eV    
--------------------------------------------------------------------------------
  Total lattice enthalpy     =      107787.37614570 eV    
--------------------------------------------------------------------------------
  Total lattice enthalpy     =        10399834.1171 kJ/(mole unit cells)
--------------------------------------------------------------------------------


  Number of variables =       87

  Maximum number of calculations  =           850
  Maximum Hessian update interval =            10
  Maximum step size               =   1.000000000
  Maximum parameter tolerance     =   0.000010000
  Maximum function  tolerance     =   0.000010000
  Maximum gradient  tolerance     =   0.001000000
  Maximum gradient  component     =   0.010000000

  Cell parameters to be optimised using strains

  Conjugate gradient optimiser to be used

  Lower half triangular hessian to be used

  Minimiser to switch to RFO
  When gradient norm is less than     0.010000

  Start of bulk optimisation :

  Cycle:      0 Energy:    107787.376146  Gnorm: 388243.279346  CPU:    0.039
  Cycle:      1 Energy:       587.323094  Gnorm:    836.082694  CPU:    0.116
  Cycle:      2 Energy:      -130.549835  Gnorm:     34.434295  CPU:    0.226
  Cycle:      3 Energy:      -395.427955  Gnorm:     13.983650  CPU:    0.312
  Cycle:      4 Energy:      -448.410853  Gnorm:     11.015942  CPU:    0.376
  Cycle:      5 Energy:      -515.449159  Gnorm:      7.240890  CPU:    0.461
  Cycle:      6 Energy:      -550.621910  Gnorm:      4.454174  CPU:    0.524
  Cycle:      7 Energy:      -574.562788  Gnorm:      3.927216  CPU:    0.586
  Cycle:      8 Energy:      -587.724274  Gnorm:      2.976351  CPU:    0.676
  Cycle:      9 Energy:      -597.334292  Gnorm:      2.357612  CPU:    0.767
  Cycle:     10 Energy:      -601.858918  Gnorm:      1.928096  CPU:    0.858
  Cycle:     11 Energy:      -605.666439  Gnorm:      1.843548  CPU:    0.949
  Cycle:     12 Energy:      -611.905371  Gnorm:      1.833259  CPU:    1.040
  Cycle:     13 Energy:      -616.643593  Gnorm:      1.623376  CPU:    1.133
  Cycle:     14 Energy:      -620.197182  Gnorm:      1.378256  CPU:    1.227
  Cycle:     15 Energy:      -622.453321  Gnorm:      1.228421  CPU:    1.304
  Cycle:     16 Energy:      -623.792819  Gnorm:      0.850554  CPU:    1.381
  Cycle:     17 Energy:      -625.113774  Gnorm:      0.692320  CPU:    1.476
  Cycle:     18 Energy:      -626.068618  Gnorm:      0.675339  CPU:    1.573
  Cycle:     19 Energy:      -626.602412  Gnorm:      0.654863  CPU:    1.650
  Cycle:     20 Energy:      -626.929582  Gnorm:      0.474897  CPU:    1.728
  Cycle:     21 Energy:      -627.326140  Gnorm:      0.406053  CPU:    1.824
  Cycle:     22 Energy:      -627.791783  Gnorm:      0.523850  CPU:    1.920
  Cycle:     23 Energy:      -628.421889  Gnorm:      0.678461  CPU:    2.016
  Cycle:     24 Energy:      -629.248647  Gnorm:      0.678769  CPU:    2.094
  Cycle:     25 Energy:      -630.041562  Gnorm:      0.630010  CPU:    2.171
  Cycle:     26 Energy:      -630.597374  Gnorm:      0.556133  CPU:    2.249
  Cycle:     27 Energy:      -631.196423  Gnorm:      0.482670  CPU:    2.344
  Cycle:     28 Energy:      -631.771709  Gnorm:      0.535861  CPU:    2.440
  Cycle:     29 Energy:      -632.301630  Gnorm:      0.588794  CPU:    2.517
  Cycle:     30 Energy:      -632.652689  Gnorm:      0.453530  CPU:    2.595
  Cycle:     31 Energy:      -633.185375  Gnorm:      0.399944  CPU:    2.691
  Cycle:     32 Energy:      -633.596615  Gnorm:      0.406348  CPU:    2.787
  Cycle:     33 Energy:      -633.950210  Gnorm:      0.379497  CPU:    2.865
  Cycle:     34 Energy:      -634.317355  Gnorm:      0.430886  CPU:    2.962
  Cycle:     35 Energy:      -634.815572  Gnorm:      0.455795  CPU:    3.058
  Cycle:     36 Energy:      -635.394216  Gnorm:      0.536029  CPU:    3.203
  Cycle:     37 Energy:      -636.012845  Gnorm:      0.622253  CPU:    3.320
  Cycle:     38 Energy:      -636.549651  Gnorm:      0.548737  CPU:    3.438
  Cycle:     39 Energy:      -637.262221  Gnorm:      0.518238  CPU:    3.585
  Cycle:     40 Energy:      -637.679789  Gnorm:      0.456223  CPU:    3.703
  Cycle:     41 Energy:      -638.228199  Gnorm:      0.536488  CPU:    3.850
  Cycle:     42 Energy:      -638.659731  Gnorm:      0.340013  CPU:    3.968
  Cycle:     43 Energy:      -638.924561  Gnorm:      0.336011  CPU:    4.115
  Cycle:     44 Energy:      -639.198419  Gnorm:      0.377492  CPU:    4.261
  Cycle:     45 Energy:      -639.610302  Gnorm:      0.428721  CPU:    4.408
  Cycle:     46 Energy:      -639.992367  Gnorm:      0.418071  CPU:    4.527
  Cycle:     47 Energy:      -640.380437  Gnorm:      0.416606  CPU:    4.675
  Cycle:     48 Energy:      -640.821448  Gnorm:      0.464037  CPU:    4.823
  Cycle:     49 Energy:      -641.266355  Gnorm:      0.550147  CPU:    4.943
  Cycle:     50 Energy:      -641.580443  Gnorm:      0.412257  CPU:    5.063
  Cycle:     51 Energy:      -642.099648  Gnorm:      0.449654  CPU:    5.212
  Cycle:     52 Energy:      -642.657738  Gnorm:      0.491318  CPU:    5.332
  Cycle:     53 Energy:      -643.232928  Gnorm:      0.541256  CPU:    5.451
  Cycle:     54 Energy:      -643.980803  Gnorm:      0.607039  CPU:    5.600
  Cycle:     55 Energy:      -644.731146  Gnorm:      0.678497  CPU:    5.720
  Cycle:     56 Energy:      -645.519960  Gnorm:      0.615782  CPU:    5.842
  Cycle:     57 Energy:      -646.230070  Gnorm:      0.546460  CPU:    5.993
  Cycle:     58 Energy:      -646.668722  Gnorm:      0.432733  CPU:    6.115
  Cycle:     59 Energy:      -647.006844  Gnorm:      0.377099  CPU:    6.266
  Cycle:     60 Energy:      -647.171425  Gnorm:      0.315703  CPU:    6.387
  Cycle:     61 Energy:      -647.394501  Gnorm:      0.330822  CPU:    6.538
  Cycle:     62 Energy:      -647.619743  Gnorm:      0.282668  CPU:    6.689
  Cycle:     63 Energy:      -647.877694  Gnorm:      0.257525  CPU:    6.839
  Cycle:     64 Energy:      -648.027827  Gnorm:      0.270423  CPU:    6.961
  Cycle:     65 Energy:      -648.159724  Gnorm:      0.270911  CPU:    7.083
  Cycle:     66 Energy:      -648.312344  Gnorm:      0.280188  CPU:    7.234
  Cycle:     67 Energy:      -648.493770  Gnorm:      0.314924  CPU:    7.385
  Cycle:     68 Energy:      -648.635534  Gnorm:      0.258639  CPU:    7.550
  Cycle:     69 Energy:      -648.817651  Gnorm:      0.227449  CPU:    7.703
  Cycle:     70 Energy:      -648.899715  Gnorm:      0.199398  CPU:    7.876
  Cycle:     71 Energy:      -648.977809  Gnorm:      0.205233  CPU:    8.049
  Cycle:     72 Energy:      -649.044232  Gnorm:      0.158912  CPU:    8.172
  Cycle:     73 Energy:      -649.087362  Gnorm:      0.132703  CPU:    8.323
  Cycle:     74 Energy:      -649.115997  Gnorm:      0.127767  CPU:    8.474
  Cycle:     75 Energy:      -649.150440  Gnorm:      0.114604  CPU:    8.626
  Cycle:     76 Energy:      -649.185144  Gnorm:      0.117964  CPU:    8.777
  Cycle:     77 Energy:      -649.225216  Gnorm:      0.107333  CPU:    8.930
  Cycle:     78 Energy:      -649.261453  Gnorm:      0.118404  CPU:    9.081
  Cycle:     79 Energy:      -649.289013  Gnorm:      0.096966  CPU:    9.203
  Cycle:     80 Energy:      -649.299841  Gnorm:      0.076125  CPU:    9.325
  Cycle:     81 Energy:      -649.311499  Gnorm:      0.056614  CPU:    9.447
  Cycle:     82 Energy:      -649.320268  Gnorm:      0.058675  CPU:    9.569
  Cycle:     83 Energy:      -649.327602  Gnorm:      0.045521  CPU:    9.691
  Cycle:     84 Energy:      -649.331736  Gnorm:      0.052153  CPU:    9.813
  Cycle:     85 Energy:      -649.335340  Gnorm:      0.036509  CPU:    9.935
  Cycle:     86 Energy:      -649.339254  Gnorm:      0.039573  CPU:   10.057
  Cycle:     87 Energy:      -649.343464  Gnorm:      0.029973  CPU:   10.179
  Cycle:     88 Energy:      -649.345911  Gnorm:      0.029547  CPU:   10.301
  Cycle:     89 Energy:      -649.348637  Gnorm:      0.039122  CPU:   10.452
  Cycle:     90 Energy:      -649.349977  Gnorm:      0.022046  CPU:   10.574
  Cycle:     91 Energy:      -649.350951  Gnorm:      0.019294  CPU:   10.697
  Cycle:     92 Energy:      -649.351911  Gnorm:      0.023188  CPU:   10.819
  Cycle:     93 Energy:      -649.352738  Gnorm:      0.020575  CPU:   10.942
  Cycle:     94 Energy:      -649.353461  Gnorm:      0.017488  CPU:   11.066
  Cycle:     95 Energy:      -649.354185  Gnorm:      0.016597  CPU:   11.188
  Cycle:     96 Energy:      -649.354889  Gnorm:      0.016601  CPU:   11.310
  Cycle:     97 Energy:      -649.355380  Gnorm:      0.017069  CPU:   11.432
  Cycle:     98 Energy:      -649.355792  Gnorm:      0.012130  CPU:   11.554
  Cycle:     99 Energy:      -649.356293  Gnorm:      0.012819  CPU:   11.676
  Cycle:    100 Energy:      -649.356503  Gnorm:      0.010390  CPU:   11.798
  Cycle:    101 Energy:      -649.356729  Gnorm:      0.011905  CPU:   11.919
  Cycle:    102 Energy:      -649.356948  Gnorm:      0.009474  CPU:   12.043
  ** Hessian has required structure
  Cycle:    103 Energy:      -649.359318  Gnorm:      0.005039  CPU:   12.385
  ** Hessian has required structure
  Cycle:    104 Energy:      -649.360263  Gnorm:      0.000309  CPU:   12.555
  ** Hessian has required structure


  **** Optimisation achieved ****


  Final enthalpy =    -649.36026355 eV      
  Final Gnorm    =       0.00003595

  Components of enthalpy : 

--------------------------------------------------------------------------------
  Interatomic potentials     =         217.71639019 eV    
  Monopole - monopole (real) =        -502.25481901 eV    
  Monopole - monopole (recip)=        -491.50339907 eV    
  Monopole - monopole (total)=        -993.75821808 eV    
  Pressure*volume            =         126.68156434 eV    
--------------------------------------------------------------------------------
  Total lattice enthalpy     =        -649.36026355 eV    
--------------------------------------------------------------------------------
  Total lattice enthalpy     =          -62653.3391 kJ/(mole unit cells)
--------------------------------------------------------------------------------

  Final fractional coordinates of atoms :

--------------------------------------------------------------------------------
   No.  Atomic        x           y          z          Radius
        Label       (Frac)      (Frac)     (Frac)       (Angs) 
--------------------------------------------------------------------------------
     1  Al    c     0.412368    0.450278    0.309522    0.000000
     2  Al    c     0.054490    0.749021    0.274050    0.000000
     3  Al    c     0.721576    0.098387    0.232470    0.000000
     4  Al    c     0.905382    0.447712    0.052328    0.000000
     5  Al    c     0.902492    0.449621    0.549288    0.000000
     6  Al    c     0.410465    0.452954    0.806224    0.000000
     7  Al    c     0.221598    0.104215    0.698479    0.000000
     8  Al    c     0.729622    0.097736    0.736881    0.000000
     9  Mg    c     0.224094    0.108181    0.198391    0.000000
    10  Mg    c     0.539780    0.770286    0.004741    0.000000
    11  Mg    c     0.560007    0.781584    0.510971    0.000000
    12  Mg    c     0.060298    0.745381    0.779479    0.000000
    13  O     c     0.529982    0.227613    0.362753    0.000000
    14  O     c     0.840682    0.688554    0.424142    0.000000
    15  O     c     0.644555    0.475382    0.158684    0.000000
    16  O     c     0.449411    0.978692    0.112282    0.000000
    17  O     c     0.309853    0.691488    0.189830    0.000000
    18  O     c     0.919034    0.970677    0.112947    0.000000
    19  O     c     0.160224    0.460674    0.934038    0.000000
    20  O     c     0.987945    0.227307    0.285871    0.000000
    21  O     c     0.444612    0.982534    0.636081    0.000000
    22  O     c     0.001268    0.226592    0.766951    0.000000
    23  O     c     0.158107    0.462408    0.429869    0.000000
    24  O     c     0.660496    0.466820    0.672749    0.000000
    25  O     c     0.512716    0.227451    0.849652    0.000000
    26  O     c     0.925959    0.983141    0.610791    0.000000
    27  O     c     0.839558    0.689299    0.948330    0.000000
    28  O     c     0.308097    0.693273    0.652517    0.000000
--------------------------------------------------------------------------------

  Final Cartesian lattice vectors (Angstroms) :

        5.626523    0.298807   -1.377968
        0.692052    7.759268    1.235401
       -1.253536    0.569930    5.093990


  Final cell parameters and derivatives :

--------------------------------------------------------------------------------
       a            5.800503 Angstrom     dE/de1(xx)     0.000081 eV/strain
       b            7.887420 Angstrom     dE/de2(yy)    -0.000119 eV/strain
       c            5.276827 Angstrom     dE/de3(zz)    -0.000079 eV/strain
       alpha       76.313446 Degrees      dE/de4(yz)    -0.002074 eV/strain
       beta       117.013130 Degrees      dE/de5(xz)     0.000412 eV/strain
       gamma       84.342722 Degrees      dE/de6(xy)     0.000853 eV/strain
--------------------------------------------------------------------------------

  Primitive cell volume =           202.967809 Angs**3

  Density of cell =      4.655884 g/cm**3

  Non-primitive cell volume =           202.967809 Angs**3


  Final internal derivatives :

--------------------------------------------------------------------------------
   No.  Atomic          a             b             c           Radius
        Label          (eV)          (eV)          (eV)        (eV/Angs)
--------------------------------------------------------------------------------
      1 Al    c       0.000000      0.000000      0.000000      0.000000
      2 Al    c       0.000123      0.000594     -0.000071      0.000000
      3 Al    c       0.000023     -0.000084     -0.000069      0.000000
      4 Al    c      -0.000098     -0.000240      0.000049      0.000000
      5 Al    c      -0.000132     -0.000349     -0.000071      0.000000
      6 Al    c      -0.000024     -0.000126      0.000054      0.000000
      7 Al    c      -0.000246     -0.000092      0.000074      0.000000
      8 Al    c       0.000210     -0.000078     -0.000214      0.000000
      9 Mg    c      -0.000122     -0.000045     -0.000033      0.000000
     10 Mg    c       0.000179     -0.000435     -0.000209      0.000000
     11 Mg    c       0.000213     -0.000464     -0.000142      0.000000
     12 Mg    c       0.000143      0.000744     -0.000109      0.000000
     13 O     c      -0.000055      0.000111     -0.000132      0.000000
     14 O     c       0.000132     -0.000220     -0.000250      0.000000
     15 O     c       0.000226     -0.000008     -0.000308      0.000000
     16 O     c      -0.000161      0.000264      0.000084      0.000000
     17 O     c      -0.000010      0.000157      0.000078      0.000000
     18 O     c       0.000003     -0.000286      0.000129      0.000000
     19 O     c       0.000039     -0.000102     -0.000406      0.000000
     20 O     c      -0.000205      0.000534      0.000259      0.000000
     21 O     c      -0.000270      0.000349      0.000229      0.000000
     22 O     c      -0.000383      0.000464      0.000547      0.000000
     23 O     c       0.000123      0.000032     -0.000416      0.000000
     24 O     c       0.000247      0.000151      0.000049      0.000000
     25 O     c       0.000035      0.000061     -0.000104      0.000000
     26 O     c       0.000039     -0.000481      0.000128      0.000000
     27 O     c       0.000009     -0.000093      0.000053      0.000000
     28 O     c      -0.000163      0.000040      0.000144      0.000000
--------------------------------------------------------------------------------
  Maximum abs         0.000383      0.000744      0.000547      0.000000
--------------------------------------------------------------------------------


  Time to end of optimisation =      12.7177 seconds


  Peak dynamic memory used =       2.03 MB 


  Timing analysis for GULP :

--------------------------------------------------------------------------------
  Task / Subroutine                                          Time (Seconds)
--------------------------------------------------------------------------------
  Calculation of reciprocal space energy and derivatives          0.3184
  Calculation of real space energy and derivatives               12.3015
  Calculation and manipulation of Hessian matrix                  0.0622
  Global summation overhead                                       0.0007
--------------------------------------------------------------------------------
  Total CPU time                                                 12.7177
--------------------------------------------------------------------------------


  Job Finished at 16:02.02 11th June       2024                               

