********************************************************************************
*                       GENERAL UTILITY LATTICE PROGRAM                        *
*                                 Julian Gale                                  *
*                       Curtin Institute for Computation                       *
*                    School of Molecular and Life Sciences                     *
*                    Curtin University, Western Australia                      *
********************************************************************************
* Version = 6.0.0 * Last modified =  12th July 2021                            *
********************************************************************************
*  optimise     - perform optimisation run                                     *
*  conp         - constant pressure calculation                                *
*  nosymmetry   - turn off symmetry after initial structure generation         *
*  conjugate    - use conjugate gradients minimiser                            *
********************************************************************************

  Job Started  at 16:18.26 11th June       2024                               

  Number of CPUs =     1


  Total number of configurations input =      1

********************************************************************************
*  Input for Configuration =   1                                               *
********************************************************************************

  Formula = Al8Mg4O16                                                   

  Number of irreducible atoms/shells =      28


  Total number atoms/shells =      28

  Dimensionality = 3               :  Bulk   



  Cartesian lattice vectors (Angstroms) :

        5.322818   -0.628846   -0.231685
       -0.628567    4.743852    0.028155
       -0.491356    0.057503    8.396891

  Cell parameters (Angstroms/Degrees):

  a =       5.3648    alpha =  88.8355
  b =       4.7854    beta  =  95.8469
  c =       8.4115    gamma = 104.2867

  Initial cell volume =         208.176407 Angs**3

  Temperature of configuration =   0.00     K 

  Pressure of configuration =       100.000 GPa 

  Fractional coordinates of asymmetric unit :

--------------------------------------------------------------------------------
   No.  Atomic       x           y          z         Charge      Occupancy
        Label      (Frac)      (Frac)     (Frac)        (e)         (Frac)  
--------------------------------------------------------------------------------
      1 Al    c    0.773006    0.954838    0.299738     3.00000    1.000000    
      2 Al    c    0.492953 *  0.451608 *  0.135284 *   3.00000    1.000000    
      3 Al    c    0.577039 *  0.940442 *  0.634599 *   3.00000    1.000000    
      4 Al    c    0.990790 *  0.446722 *  0.136278 *   3.00000    1.000000    
      5 Al    c    0.174530 *  0.413739 *  0.792352 *   3.00000    1.000000    
      6 Al    c    0.083310 *  0.939457 *  0.628581 *   3.00000    1.000000    
      7 Al    c    0.406306 *  0.239012 *  0.620369 *   3.00000    1.000000    
      8 Al    c    0.386161 *  0.935044 *  0.971636 *   3.00000    1.000000    
      9 Mg    c    0.880922 *  0.919001 *  0.961688 *   2.00000    1.000000    
     10 Mg    c    0.777018 *  0.457946 *  0.471318 *   2.00000    1.000000    
     11 Mg    c    0.281664 *  0.500540 *  0.459963 *   2.00000    1.000000    
     12 Mg    c    0.276631 *  0.006486 *  0.302324 *   2.00000    1.000000    
     13 O     c    0.965805 *  0.516942 *  0.915231 *  -2.00000    1.000000    
     14 O     c    0.657488 *  0.157041 *  0.115809 *  -2.00000    1.000000    
     15 O     c    0.801678 *  0.701415 *  0.161370 *  -2.00000    1.000000    
     16 O     c    0.185281 *  0.187677 *  0.098375 *  -2.00000    1.000000    
     17 O     c    0.772350 *  0.699127 *  0.669301 *  -2.00000    1.000000    
     18 O     c    0.903925 *  0.235594 *  0.638413 *  -2.00000    1.000000    
     19 O     c    0.671242 *  0.421469 *  0.790048 *  -2.00000    1.000000    
     20 O     c    0.022797 *  0.828584 *  0.432469 *  -2.00000    1.000000    
     21 O     c    0.276893 *  0.689996 *  0.663034 *  -2.00000    1.000000    
     22 O     c    0.621606 *  0.060632 *  0.838966 *  -2.00000    1.000000    
     23 O     c    0.981536 *  0.299375 *  0.328889 *  -2.00000    1.000000    
     24 O     c    0.476911 *  0.539175 *  0.915253 *  -2.00000    1.000000    
     25 O     c    0.301662 *  0.712755 *  0.143047 *  -2.00000    1.000000    
     26 O     c    0.168079 *  0.048194 *  0.833390 *  -2.00000    1.000000    
     27 O     c    0.554436 *  0.886813 *  0.432101 *  -2.00000    1.000000    
     28 O     c    0.495642 *  0.382853 *  0.328524 *  -2.00000    1.000000    
--------------------------------------------------------------------------------



********************************************************************************
*  General input information                                                   *
********************************************************************************

  Species output for all configurations : 

--------------------------------------------------------------------------------
  Species    Type    Atomic    Atomic    Charge       Radii (Angs)     Library
                     Number     Mass       (e)     Cova   Ionic  VDW   Symbol
--------------------------------------------------------------------------------
    Mg       Core       12      24.31   2.000000   1.100  0.000  1.640          
    Al       Core       13      26.98   3.000000   1.350  0.000  2.050          
    O        Core        8      16.00  -2.000000   0.730  0.000  1.360          
--------------------------------------------------------------------------------


  Lattice summation method               =    Ewald          (3-D)
                                         =    Parry          (2-D)
                                         =    Saunders et al (1-D)
  Accuracy factor for lattice sums       =   12.000


  Analytic derivatives to be used

  Time limit = Infinity

  Maximum range for interatomic potentials =    100000.000000 Angstroms

  General interatomic potentials :

--------------------------------------------------------------------------------
Atom  Types   Potential      Parameter       Value         Units   Cutoffs(Ang)
  1     2                                                            Min /  Max 
--------------------------------------------------------------------------------
O    c Mg   c Lennard       Lennard-Jones A  1.5000000    eV*Ang^m  0.000  6.000
                            Lennard-Jones B  0.0000000    eV*Ang^n  
                            Exponent m        12          None
                            Exponent n         6          None
--------------------------------------------------------------------------------
O    c Al   c Lennard       Lennard-Jones A  1.5000000    eV*Ang^m  0.000  6.000
                            Lennard-Jones B  0.0000000    eV*Ang^n  
                            Exponent m        12          None
                            Exponent n         6          None
--------------------------------------------------------------------------------
O    c O    c Lennard       Lennard-Jones A  1.5000000    eV*Ang^m  0.000  6.000
                            Lennard-Jones B  0.0000000    eV*Ang^n  
                            Exponent m        12          None
                            Exponent n         6          None
--------------------------------------------------------------------------------
Mg   c Mg   c Lennard       Lennard-Jones A  1.5000000    eV*Ang^m  0.000  6.000
                            Lennard-Jones B  0.0000000    eV*Ang^n  
                            Exponent m        12          None
                            Exponent n         6          None
--------------------------------------------------------------------------------
Mg   c Al   c Lennard       Lennard-Jones A  1.5000000    eV*Ang^m  0.000  6.000
                            Lennard-Jones B  0.0000000    eV*Ang^n  
                            Exponent m        12          None
                            Exponent n         6          None
--------------------------------------------------------------------------------
Al   c Al   c Lennard       Lennard-Jones A  1.5000000    eV*Ang^m  0.000  6.000
                            Lennard-Jones B  0.0000000    eV*Ang^n  
                            Exponent m        12          None
                            Exponent n         6          None
--------------------------------------------------------------------------------
O    c Mg   c Buckingham    Buckingham A     1428.5000    eV        0.000  7.000
                            Buckingham rho  0.29450000    Ang       
                            Buckingham C     0.0000000    eV*Ang^6  
--------------------------------------------------------------------------------
O    c Al   c Buckingham    Buckingham A     1114.9000    eV        0.000  7.000
                            Buckingham rho  0.31180000    Ang       
                            Buckingham C     0.0000000    eV*Ang^6  
--------------------------------------------------------------------------------
O    c O    c Buckingham    Buckingham A     2023.8000    eV        0.000  7.000
                            Buckingham rho  0.26740000    Ang       
                            Buckingham C     0.0000000    eV*Ang^6  
--------------------------------------------------------------------------------

********************************************************************************
*  Output for configuration   1                                                *
********************************************************************************


  Components of enthalpy : 

--------------------------------------------------------------------------------
  Interatomic potentials     =         202.06331113 eV    
  Monopole - monopole (real) =        -396.15280592 eV    
  Monopole - monopole (recip)=        -466.23156764 eV    
  Monopole - monopole (total)=        -862.38437356 eV    
  Pressure*volume            =         129.93249047 eV    
--------------------------------------------------------------------------------
  Total lattice enthalpy     =        -530.38857196 eV    
--------------------------------------------------------------------------------
  Total lattice enthalpy     =          -51174.3895 kJ/(mole unit cells)
--------------------------------------------------------------------------------


  Number of variables =       87

  Maximum number of calculations  =           850
  Maximum Hessian update interval =            10
  Maximum step size               =   1.000000000
  Maximum parameter tolerance     =   0.000010000
  Maximum function  tolerance     =   0.000010000
  Maximum gradient  tolerance     =   0.001000000
  Maximum gradient  component     =   0.010000000

  Cell parameters to be optimised using strains

  Conjugate gradient optimiser to be used

  Lower half triangular hessian to be used

  Minimiser to switch to RFO
  When gradient norm is less than     0.010000

  Start of bulk optimisation :

  Cycle:      0 Energy:      -530.388572  Gnorm:     10.804370  CPU:    0.052
  Cycle:      1 Energy:      -590.948073  Gnorm:      4.486704  CPU:    0.130
  Cycle:      2 Energy:      -605.220530  Gnorm:      2.455805  CPU:    0.230
  Cycle:      3 Energy:      -610.364854  Gnorm:      1.995210  CPU:    0.331
  Cycle:      4 Energy:      -615.536424  Gnorm:      1.486560  CPU:    0.431
  Cycle:      5 Energy:      -617.701480  Gnorm:      1.400685  CPU:    0.514
  Cycle:      6 Energy:      -620.666151  Gnorm:      1.435918  CPU:    0.614
  Cycle:      7 Energy:      -624.398834  Gnorm:      1.305400  CPU:    0.710
  Cycle:      8 Energy:      -627.548770  Gnorm:      1.129889  CPU:    0.810
  Cycle:      9 Energy:      -629.801736  Gnorm:      0.898304  CPU:    0.906
  Cycle:     10 Energy:      -630.671695  Gnorm:      0.800167  CPU:    0.989
  Cycle:     11 Energy:      -631.361073  Gnorm:      0.622582  CPU:    1.085
  Cycle:     12 Energy:      -631.982804  Gnorm:      0.585864  CPU:    1.185
  Cycle:     13 Energy:      -632.394792  Gnorm:      0.531184  CPU:    1.263
  Cycle:     14 Energy:      -632.838976  Gnorm:      0.408255  CPU:    1.364
  Cycle:     15 Energy:      -633.255065  Gnorm:      0.747094  CPU:    1.459
  Cycle:     16 Energy:      -633.917710  Gnorm:      0.659061  CPU:    1.560
  Cycle:     17 Energy:      -634.977657  Gnorm:      0.835209  CPU:    1.638
  Cycle:     18 Energy:      -636.490987  Gnorm:      0.962981  CPU:    1.739
  Cycle:     19 Energy:      -637.797068  Gnorm:      1.061975  CPU:    1.818
  Cycle:     20 Energy:      -638.412982  Gnorm:      0.629045  CPU:    1.901
  Cycle:     21 Energy:      -639.191392  Gnorm:      0.700466  CPU:    1.998
  Cycle:     22 Energy:      -640.099472  Gnorm:      0.746460  CPU:    2.096
  Cycle:     23 Energy:      -641.311736  Gnorm:      0.994853  CPU:    2.193
  Cycle:     24 Energy:      -642.197914  Gnorm:      0.790323  CPU:    2.273
  Cycle:     25 Energy:      -643.541792  Gnorm:      1.003588  CPU:    2.371
  Cycle:     26 Energy:      -644.996197  Gnorm:      1.168875  CPU:    2.451
  Cycle:     27 Energy:      -646.451707  Gnorm:      0.803423  CPU:    2.534
  Cycle:     28 Energy:      -647.174946  Gnorm:      0.774996  CPU:    2.637
  Cycle:     29 Energy:      -647.764111  Gnorm:      0.604111  CPU:    2.717
  Cycle:     30 Energy:      -648.083904  Gnorm:      0.520500  CPU:    2.797
  Cycle:     31 Energy:      -648.414187  Gnorm:      0.484138  CPU:    2.880
  Cycle:     32 Energy:      -648.751756  Gnorm:      0.474607  CPU:    2.979
  Cycle:     33 Energy:      -648.965007  Gnorm:      0.362961  CPU:    3.058
  Cycle:     34 Energy:      -649.173124  Gnorm:      0.312901  CPU:    3.156
  Cycle:     35 Energy:      -649.419254  Gnorm:      0.285491  CPU:    3.257
  Cycle:     36 Energy:      -649.518087  Gnorm:      0.285072  CPU:    3.336
  Cycle:     37 Energy:      -649.583481  Gnorm:      0.186963  CPU:    3.415
  Cycle:     38 Energy:      -649.656922  Gnorm:      0.208129  CPU:    3.513
  Cycle:     39 Energy:      -649.713934  Gnorm:      0.215220  CPU:    3.593
  Cycle:     40 Energy:      -649.744601  Gnorm:      0.152571  CPU:    3.672
  Cycle:     41 Energy:      -649.783456  Gnorm:      0.161657  CPU:    3.769
  Cycle:     42 Energy:      -649.813133  Gnorm:      0.166288  CPU:    3.848
  Cycle:     43 Energy:      -649.851623  Gnorm:      0.130187  CPU:    3.949
  Cycle:     44 Energy:      -649.892819  Gnorm:      0.122216  CPU:    4.047
  Cycle:     45 Energy:      -649.920957  Gnorm:      0.107835  CPU:    4.126
  Cycle:     46 Energy:      -649.954261  Gnorm:      0.128231  CPU:    4.224
  Cycle:     47 Energy:      -649.998049  Gnorm:      0.165233  CPU:    4.322
  Cycle:     48 Energy:      -650.027088  Gnorm:      0.161830  CPU:    4.400
  Cycle:     49 Energy:      -650.079368  Gnorm:      0.193977  CPU:    4.498
  Cycle:     50 Energy:      -650.098253  Gnorm:      0.112756  CPU:    4.577
  Cycle:     51 Energy:      -650.121807  Gnorm:      0.107921  CPU:    4.674
  Cycle:     52 Energy:      -650.142855  Gnorm:      0.095643  CPU:    4.772
  Cycle:     53 Energy:      -650.157996  Gnorm:      0.113771  CPU:    4.869
  Cycle:     54 Energy:      -650.176465  Gnorm:      0.101647  CPU:    4.966
  Cycle:     55 Energy:      -650.208419  Gnorm:      0.110393  CPU:    5.064
  Cycle:     56 Energy:      -650.246435  Gnorm:      0.159349  CPU:    5.142
  Cycle:     57 Energy:      -650.280916  Gnorm:      0.183904  CPU:    5.222
  Cycle:     58 Energy:      -650.319833  Gnorm:      0.191746  CPU:    5.300
  Cycle:     59 Energy:      -650.396365  Gnorm:      0.237099  CPU:    5.399
  Cycle:     60 Energy:      -650.438786  Gnorm:      0.172383  CPU:    5.478
  Cycle:     61 Energy:      -650.474731  Gnorm:      0.148926  CPU:    5.576
  Cycle:     62 Energy:      -650.501918  Gnorm:      0.154904  CPU:    5.673
  Cycle:     63 Energy:      -650.532008  Gnorm:      0.139801  CPU:    5.752
  Cycle:     64 Energy:      -650.563642  Gnorm:      0.105005  CPU:    5.853
  Cycle:     65 Energy:      -650.589748  Gnorm:      0.087491  CPU:    5.951
  Cycle:     66 Energy:      -650.609001  Gnorm:      0.092520  CPU:    6.049
  Cycle:     67 Energy:      -650.619211  Gnorm:      0.116376  CPU:    6.128
  Cycle:     68 Energy:      -650.639016  Gnorm:      0.093975  CPU:    6.225
  Cycle:     69 Energy:      -650.658626  Gnorm:      0.115634  CPU:    6.322
  Cycle:     70 Energy:      -650.669143  Gnorm:      0.083837  CPU:    6.402
  Cycle:     71 Energy:      -650.680263  Gnorm:      0.096273  CPU:    6.499
  Cycle:     72 Energy:      -650.692916  Gnorm:      0.091526  CPU:    6.578
  Cycle:     73 Energy:      -650.700301  Gnorm:      0.075262  CPU:    6.656
  Cycle:     74 Energy:      -650.715554  Gnorm:      0.084160  CPU:    6.757
  Cycle:     75 Energy:      -650.736145  Gnorm:      0.096897  CPU:    6.854
  Cycle:     76 Energy:      -650.749359  Gnorm:      0.126424  CPU:    6.933
  Cycle:     77 Energy:      -650.769579  Gnorm:      0.105069  CPU:    7.030
  Cycle:     78 Energy:      -650.788803  Gnorm:      0.120240  CPU:    7.110
  Cycle:     79 Energy:      -650.808115  Gnorm:      0.132592  CPU:    7.189
  Cycle:     80 Energy:      -650.821640  Gnorm:      0.102905  CPU:    7.269
  Cycle:     81 Energy:      -650.834528  Gnorm:      0.097628  CPU:    7.348
  Cycle:     82 Energy:      -650.848563  Gnorm:      0.103416  CPU:    7.427
  Cycle:     83 Energy:      -650.861589  Gnorm:      0.095185  CPU:    7.506
  Cycle:     84 Energy:      -650.877673  Gnorm:      0.079311  CPU:    7.605
  Cycle:     85 Energy:      -650.893858  Gnorm:      0.070811  CPU:    7.702
  Cycle:     86 Energy:      -650.905279  Gnorm:      0.075839  CPU:    7.782
  Cycle:     87 Energy:      -650.921465  Gnorm:      0.129641  CPU:    7.879
  Cycle:     88 Energy:      -650.937886  Gnorm:      0.112011  CPU:    7.962
  Cycle:     89 Energy:      -650.957906  Gnorm:      0.150532  CPU:    8.041
  Cycle:     90 Energy:      -650.968754  Gnorm:      0.082929  CPU:    8.124
  Cycle:     91 Energy:      -650.985609  Gnorm:      0.106421  CPU:    8.203
  Cycle:     92 Energy:      -651.002894  Gnorm:      0.089114  CPU:    8.286
  Cycle:     93 Energy:      -651.011944  Gnorm:      0.088452  CPU:    8.365
  Cycle:     94 Energy:      -651.033101  Gnorm:      0.100412  CPU:    8.466
  Cycle:     95 Energy:      -651.061164  Gnorm:      0.120053  CPU:    8.563
  Cycle:     96 Energy:      -651.076135  Gnorm:      0.134076  CPU:    8.646
  Cycle:     97 Energy:      -651.105304  Gnorm:      0.124337  CPU:    8.744
  Cycle:     98 Energy:      -651.139111  Gnorm:      0.160380  CPU:    8.815
  Cycle:     99 Energy:      -651.193363  Gnorm:      0.251995  CPU:    8.882
  Cycle:    100 Energy:      -651.234059  Gnorm:      0.155083  CPU:    8.950
  Cycle:    101 Energy:      -651.268370  Gnorm:      0.131835  CPU:    9.022
  Cycle:    102 Energy:      -651.287208  Gnorm:      0.137907  CPU:    9.076
  Cycle:    103 Energy:      -651.311999  Gnorm:      0.127174  CPU:    9.148
  Cycle:    104 Energy:      -651.345582  Gnorm:      0.116920  CPU:    9.215
  Cycle:    105 Energy:      -651.376315  Gnorm:      0.082662  CPU:    9.286
  Cycle:    106 Energy:      -651.390586  Gnorm:      0.088924  CPU:    9.341
  Cycle:    107 Energy:      -651.404954  Gnorm:      0.135930  CPU:    9.400
  Cycle:    108 Energy:      -651.428959  Gnorm:      0.120475  CPU:    9.467
  Cycle:    109 Energy:      -651.447326  Gnorm:      0.128782  CPU:    9.526
  Cycle:    110 Energy:      -651.456639  Gnorm:      0.086475  CPU:    9.582
  Cycle:    111 Energy:      -651.475332  Gnorm:      0.120392  CPU:    9.653
  Cycle:    112 Energy:      -651.489079  Gnorm:      0.088620  CPU:    9.708
  Cycle:    113 Energy:      -651.499857  Gnorm:      0.085342  CPU:    9.767
  Cycle:    114 Energy:      -651.516586  Gnorm:      0.108177  CPU:    9.834
  Cycle:    115 Energy:      -651.533340  Gnorm:      0.124394  CPU:    9.893
  Cycle:    116 Energy:      -651.550990  Gnorm:      0.119304  CPU:    9.948
  Cycle:    117 Energy:      -651.570847  Gnorm:      0.106595  CPU:   10.019
  Cycle:    118 Energy:      -651.592619  Gnorm:      0.100727  CPU:   10.086
  Cycle:    119 Energy:      -651.616093  Gnorm:      0.155695  CPU:   10.158
  Cycle:    120 Energy:      -651.630966  Gnorm:      0.093895  CPU:   10.213
  Cycle:    121 Energy:      -651.643683  Gnorm:      0.090457  CPU:   10.272
  Cycle:    122 Energy:      -651.652924  Gnorm:      0.096388  CPU:   10.327
  Cycle:    123 Energy:      -651.666478  Gnorm:      0.090721  CPU:   10.398
  Cycle:    124 Energy:      -651.683306  Gnorm:      0.071691  CPU:   10.465
  Cycle:    125 Energy:      -651.695010  Gnorm:      0.051906  CPU:   10.537
  Cycle:    126 Energy:      -651.702961  Gnorm:      0.065140  CPU:   10.604
  Cycle:    127 Energy:      -651.710137  Gnorm:      0.101697  CPU:   10.663
  Cycle:    128 Energy:      -651.722146  Gnorm:      0.071008  CPU:   10.717
  Cycle:    129 Energy:      -651.731402  Gnorm:      0.110648  CPU:   10.777
  Cycle:    130 Energy:      -651.736919  Gnorm:      0.055400  CPU:   10.831
  Cycle:    131 Energy:      -651.743858  Gnorm:      0.064117  CPU:   10.890
  Cycle:    132 Energy:      -651.750905  Gnorm:      0.051140  CPU:   10.946
  Cycle:    133 Energy:      -651.754676  Gnorm:      0.055072  CPU:   11.005
  Cycle:    134 Energy:      -651.759181  Gnorm:      0.056786  CPU:   11.060
  Cycle:    135 Energy:      -651.768645  Gnorm:      0.058896  CPU:   11.119
  Cycle:    136 Energy:      -651.777221  Gnorm:      0.059699  CPU:   11.174
  Cycle:    137 Energy:      -651.781873  Gnorm:      0.063948  CPU:   11.233
  Cycle:    138 Energy:      -651.788129  Gnorm:      0.061233  CPU:   11.287
  Cycle:    139 Energy:      -651.799795  Gnorm:      0.091768  CPU:   11.359
  Cycle:    140 Energy:      -651.807624  Gnorm:      0.064297  CPU:   11.414
  Cycle:    141 Energy:      -651.810875  Gnorm:      0.051246  CPU:   11.473
  Cycle:    142 Energy:      -651.814626  Gnorm:      0.044410  CPU:   11.528
  Cycle:    143 Energy:      -651.820363  Gnorm:      0.044553  CPU:   11.599
  Cycle:    144 Energy:      -651.824894  Gnorm:      0.049521  CPU:   11.654
  Cycle:    145 Energy:      -651.827185  Gnorm:      0.036790  CPU:   11.713
  Cycle:    146 Energy:      -651.829493  Gnorm:      0.031854  CPU:   11.768
  Cycle:    147 Energy:      -651.832471  Gnorm:      0.051388  CPU:   11.827
  Cycle:    148 Energy:      -651.834938  Gnorm:      0.045782  CPU:   11.881
  Cycle:    149 Energy:      -651.837151  Gnorm:      0.039268  CPU:   11.940
  Cycle:    150 Energy:      -651.838111  Gnorm:      0.032295  CPU:   11.995
  Cycle:    151 Energy:      -651.840895  Gnorm:      0.039937  CPU:   12.054
  Cycle:    152 Energy:      -651.843300  Gnorm:      0.028946  CPU:   12.109
  Cycle:    153 Energy:      -651.844874  Gnorm:      0.040846  CPU:   12.168
  Cycle:    154 Energy:      -651.847473  Gnorm:      0.036753  CPU:   12.223
  Cycle:    155 Energy:      -651.850605  Gnorm:      0.035145  CPU:   12.282
  Cycle:    156 Energy:      -651.853387  Gnorm:      0.042794  CPU:   12.348
  Cycle:    157 Energy:      -651.855738  Gnorm:      0.045388  CPU:   12.407
  Cycle:    158 Energy:      -651.858947  Gnorm:      0.054059  CPU:   12.462
  Cycle:    159 Energy:      -651.863902  Gnorm:      0.079236  CPU:   12.521
  Cycle:    160 Energy:      -651.867422  Gnorm:      0.045267  CPU:   12.576
  Cycle:    161 Energy:      -651.869569  Gnorm:      0.032436  CPU:   12.635
  Cycle:    162 Energy:      -651.870806  Gnorm:      0.033569  CPU:   12.690
  Cycle:    163 Energy:      -651.872725  Gnorm:      0.034218  CPU:   12.748
  Cycle:    164 Energy:      -651.874406  Gnorm:      0.021486  CPU:   12.803
  Cycle:    165 Energy:      -651.876991  Gnorm:      0.032511  CPU:   12.874
  Cycle:    166 Energy:      -651.878883  Gnorm:      0.030217  CPU:   12.929
  Cycle:    167 Energy:      -651.880164  Gnorm:      0.036960  CPU:   12.988
  Cycle:    168 Energy:      -651.881497  Gnorm:      0.029332  CPU:   13.043
  Cycle:    169 Energy:      -651.883136  Gnorm:      0.030687  CPU:   13.102
  Cycle:    170 Energy:      -651.884106  Gnorm:      0.021701  CPU:   13.157
  Cycle:    171 Energy:      -651.884968  Gnorm:      0.028750  CPU:   13.215
  Cycle:    172 Energy:      -651.885768  Gnorm:      0.023139  CPU:   13.270
  Cycle:    173 Energy:      -651.886879  Gnorm:      0.037302  CPU:   13.329
  Cycle:    174 Energy:      -651.888681  Gnorm:      0.028704  CPU:   13.384
  Cycle:    175 Energy:      -651.889844  Gnorm:      0.022055  CPU:   13.443
  Cycle:    176 Energy:      -651.890516  Gnorm:      0.028775  CPU:   13.497
  Cycle:    177 Energy:      -651.891711  Gnorm:      0.031162  CPU:   13.556
  Cycle:    178 Energy:      -651.893780  Gnorm:      0.031834  CPU:   13.611
  Cycle:    179 Energy:      -651.896005  Gnorm:      0.053745  CPU:   13.682
  Cycle:    180 Energy:      -651.897483  Gnorm:      0.027171  CPU:   13.737
  Cycle:    181 Energy:      -651.898361  Gnorm:      0.022825  CPU:   13.796
  Cycle:    182 Energy:      -651.898931  Gnorm:      0.021650  CPU:   13.851
  Cycle:    183 Energy:      -651.899663  Gnorm:      0.019530  CPU:   13.910
  Cycle:    184 Energy:      -651.900291  Gnorm:      0.016562  CPU:   13.965
  Cycle:    185 Energy:      -651.901629  Gnorm:      0.027187  CPU:   14.032
  Cycle:    186 Energy:      -651.905170  Gnorm:      0.031480  CPU:   14.099
  Cycle:    187 Energy:      -651.907295  Gnorm:      0.042193  CPU:   14.154
  Cycle:    188 Energy:      -651.908538  Gnorm:      0.026365  CPU:   14.209
  Cycle:    189 Energy:      -651.910122  Gnorm:      0.036119  CPU:   14.264
  Cycle:    190 Energy:      -651.910888  Gnorm:      0.020509  CPU:   14.319
  Cycle:    191 Energy:      -651.911424  Gnorm:      0.021598  CPU:   14.374
  Cycle:    192 Energy:      -651.912214  Gnorm:      0.027585  CPU:   14.429
  Cycle:    193 Energy:      -651.913096  Gnorm:      0.022180  CPU:   14.484
  Cycle:    194 Energy:      -651.914508  Gnorm:      0.022511  CPU:   14.539
  Cycle:    195 Energy:      -651.915099  Gnorm:      0.015273  CPU:   14.594
  Cycle:    196 Energy:      -651.915314  Gnorm:      0.015073  CPU:   14.650
  Cycle:    197 Energy:      -651.915920  Gnorm:      0.025498  CPU:   14.705
  Cycle:    198 Energy:      -651.916813  Gnorm:      0.026218  CPU:   14.760
  Cycle:    199 Energy:      -651.917716  Gnorm:      0.025396  CPU:   14.815
  Cycle:    200 Energy:      -651.918103  Gnorm:      0.016864  CPU:   14.870
  Cycle:    201 Energy:      -651.918644  Gnorm:      0.020207  CPU:   14.925
  Cycle:    202 Energy:      -651.919043  Gnorm:      0.017313  CPU:   14.980
  Cycle:    203 Energy:      -651.919462  Gnorm:      0.016030  CPU:   15.035
  Cycle:    204 Energy:      -651.920156  Gnorm:      0.020335  CPU:   15.090
  Cycle:    205 Energy:      -651.920638  Gnorm:      0.020856  CPU:   15.145
  Cycle:    206 Energy:      -651.921119  Gnorm:      0.019872  CPU:   15.200
  Cycle:    207 Energy:      -651.921978  Gnorm:      0.021673  CPU:   15.267
  Cycle:    208 Energy:      -651.922503  Gnorm:      0.017487  CPU:   15.322
  Cycle:    209 Energy:      -651.922981  Gnorm:      0.022934  CPU:   15.377
  Cycle:    210 Energy:      -651.923326  Gnorm:      0.017760  CPU:   15.432
  Cycle:    211 Energy:      -651.923759  Gnorm:      0.017168  CPU:   15.487
  Cycle:    212 Energy:      -651.924535  Gnorm:      0.020247  CPU:   15.543
  Cycle:    213 Energy:      -651.924958  Gnorm:      0.016790  CPU:   15.598
  Cycle:    214 Energy:      -651.925458  Gnorm:      0.017316  CPU:   15.653
  Cycle:    215 Energy:      -651.925982  Gnorm:      0.011761  CPU:   15.708
  Cycle:    216 Energy:      -651.926416  Gnorm:      0.016868  CPU:   15.763
  Cycle:    217 Energy:      -651.926751  Gnorm:      0.015431  CPU:   15.818
  Cycle:    218 Energy:      -651.926990  Gnorm:      0.014600  CPU:   15.873
  Cycle:    219 Energy:      -651.927553  Gnorm:      0.029597  CPU:   15.928
  Cycle:    220 Energy:      -651.928016  Gnorm:      0.014464  CPU:   15.984
  Cycle:    221 Energy:      -651.928206  Gnorm:      0.010747  CPU:   16.039
  Cycle:    222 Energy:      -651.928424  Gnorm:      0.015555  CPU:   16.094
  Cycle:    223 Energy:      -651.928769  Gnorm:      0.013255  CPU:   16.150
  Cycle:    224 Energy:      -651.929155  Gnorm:      0.013612  CPU:   16.205
  Cycle:    225 Energy:      -651.929453  Gnorm:      0.015720  CPU:   16.261
  Cycle:    226 Energy:      -651.929813  Gnorm:      0.017697  CPU:   16.316
  Cycle:    227 Energy:      -651.930236  Gnorm:      0.018032  CPU:   16.371
  Cycle:    228 Energy:      -651.930587  Gnorm:      0.016876  CPU:   16.426
  Cycle:    229 Energy:      -651.931148  Gnorm:      0.016385  CPU:   16.493
  Cycle:    230 Energy:      -651.931485  Gnorm:      0.012774  CPU:   16.548
  Cycle:    231 Energy:      -651.931719  Gnorm:      0.016029  CPU:   16.603
  Cycle:    232 Energy:      -651.932085  Gnorm:      0.014244  CPU:   16.660
  Cycle:    233 Energy:      -651.932314  Gnorm:      0.015609  CPU:   16.715
  Cycle:    234 Energy:      -651.932644  Gnorm:      0.011928  CPU:   16.771
  Cycle:    235 Energy:      -651.932925  Gnorm:      0.011921  CPU:   16.826
  Cycle:    236 Energy:      -651.933151  Gnorm:      0.013573  CPU:   16.881
  Cycle:    237 Energy:      -651.933372  Gnorm:      0.011272  CPU:   16.936
  Cycle:    238 Energy:      -651.933580  Gnorm:      0.011712  CPU:   16.991
  Cycle:    239 Energy:      -651.933811  Gnorm:      0.018590  CPU:   17.046
  Cycle:    240 Energy:      -651.933977  Gnorm:      0.009684  CPU:   17.102
  ** Hessian has required structure
  Cycle:    241 Energy:      -651.938026  Gnorm:      0.007569  CPU:   17.320
  ** Hessian has required structure
  Cycle:    242 Energy:      -651.941844  Gnorm:      0.004951  CPU:   17.419
  ** Hessian has required structure
  Cycle:    243 Energy:      -651.944092  Gnorm:      0.002205  CPU:   17.505
  ** Hessian has required structure
  Cycle:    244 Energy:      -651.944419  Gnorm:      0.000398  CPU:   17.580
  ** Hessian has required structure


  **** Optimisation achieved ****


  Final enthalpy =    -651.94441971 eV      
  Final Gnorm    =       0.00004632

  Components of enthalpy : 

--------------------------------------------------------------------------------
  Interatomic potentials     =         217.83094365 eV    
  Monopole - monopole (real) =        -502.85527257 eV    
  Monopole - monopole (recip)=        -492.67590206 eV    
  Monopole - monopole (total)=        -995.53117463 eV    
  Pressure*volume            =         125.75581126 eV    
--------------------------------------------------------------------------------
  Total lattice enthalpy     =        -651.94441971 eV    
--------------------------------------------------------------------------------
  Total lattice enthalpy     =          -62902.6706 kJ/(mole unit cells)
--------------------------------------------------------------------------------

  Final fractional coordinates of atoms :

--------------------------------------------------------------------------------
   No.  Atomic        x           y          z          Radius
        Label       (Frac)      (Frac)     (Frac)       (Angs) 
--------------------------------------------------------------------------------
     1  Al    c     0.773006    0.954838    0.299738    0.000000
     2  Al    c     0.643655    0.429065    0.150344    0.000000
     3  Al    c     0.770162    0.951679    0.644146    0.000000
     4  Al    c     0.146013    0.429878    0.151042    0.000000
     5  Al    c     0.137449    0.420242    0.800492    0.000000
     6  Al    c     0.272483    0.948587    0.648257    0.000000
     7  Al    c     0.639920    0.432475    0.797196    0.000000
     8  Al    c     0.513096    0.919500    0.977857    0.000000
     9  Mg    c     0.015136    0.918148    0.978989    0.000000
    10  Mg    c     0.901036    0.460494    0.472286    0.000000
    11  Mg    c     0.397256    0.447299    0.466288    0.000000
    12  Mg    c     0.271210    0.946399    0.303572    0.000000
    13  O     c     0.201003    0.606066    0.972232    0.000000
    14  O     c     0.813575    0.150522    0.103480    0.000000
    15  O     c     0.946837    0.689369    0.209830    0.000000
    16  O     c     0.340337    0.153702    0.097754    0.000000
    17  O     c     0.953134    0.686521    0.730025    0.000000
    18  O     c     0.088286    0.218578    0.621241    0.000000
    19  O     c     0.591652    0.228846    0.616163    0.000000
    20  O     c     0.229586    0.765386    0.488990    0.000000
    21  O     c     0.458703    0.690634    0.730329    0.000000
    22  O     c     0.808236    0.149344    0.839048    0.000000
    23  O     c     0.083623    0.244837    0.327026    0.000000
    24  O     c     0.671737    0.615995    0.969775    0.000000
    25  O     c     0.467469    0.685667    0.212416    0.000000
    26  O     c     0.328021    0.140542    0.835702    0.000000
    27  O     c     0.733321    0.789610    0.473047    0.000000
    28  O     c     0.609384    0.242979    0.332116    0.000000
--------------------------------------------------------------------------------

  Final Cartesian lattice vectors (Angstroms) :

        5.218503   -0.706266    0.048376
       -0.713262    4.510682   -0.018502
       -0.027218    0.040215    8.746441


  Final cell parameters and derivatives :

--------------------------------------------------------------------------------
       a            5.266300 Angstrom     dE/de1(xx)     0.000909 eV/strain
       b            4.566765 Angstrom     dE/de2(yy)     0.000783 eV/strain
       c            8.746576 Angstrom     dE/de3(zz)    -0.000568 eV/strain
       alpha       89.944084 Degrees      dE/de4(yz)     0.000266 eV/strain
       beta        89.685699 Degrees      dE/de5(xz)    -0.001961 eV/strain
       gamma      106.694499 Degrees      dE/de6(xy)     0.000218 eV/strain
--------------------------------------------------------------------------------

  Primitive cell volume =           201.484578 Angs**3

  Density of cell =      4.690158 g/cm**3

  Non-primitive cell volume =           201.484578 Angs**3


  Final internal derivatives :

--------------------------------------------------------------------------------
   No.  Atomic          a             b             c           Radius
        Label          (eV)          (eV)          (eV)        (eV/Angs)
--------------------------------------------------------------------------------
      1 Al    c       0.000000      0.000000      0.000000      0.000000
      2 Al    c       0.000065     -0.000022     -0.000198      0.000000
      3 Al    c      -0.000232      0.000076     -0.001380      0.000000
      4 Al    c       0.000042     -0.000029     -0.000325      0.000000
      5 Al    c       0.000034      0.000151      0.000769      0.000000
      6 Al    c       0.000163      0.000000     -0.000831      0.000000
      7 Al    c      -0.000116     -0.000076      0.000721      0.000000
      8 Al    c       0.000118     -0.000574      0.000276      0.000000
      9 Mg    c      -0.000089     -0.000270      0.000334      0.000000
     10 Mg    c      -0.000308      0.000184      0.000069      0.000000
     11 Mg    c       0.000329      0.000307     -0.000163      0.000000
     12 Mg    c       0.000275     -0.000155      0.001230      0.000000
     13 O     c      -0.000077      0.000184     -0.000077      0.000000
     14 O     c       0.000417      0.000081     -0.000801      0.000000
     15 O     c       0.000100     -0.000118     -0.000235      0.000000
     16 O     c      -0.000309      0.000303     -0.000567      0.000000
     17 O     c       0.000260      0.000041     -0.000025      0.000000
     18 O     c      -0.000021     -0.000199      0.000161      0.000000
     19 O     c      -0.000073     -0.000097      0.000137      0.000000
     20 O     c      -0.000181      0.000297     -0.000321      0.000000
     21 O     c       0.000151     -0.000045     -0.000245      0.000000
     22 O     c       0.000337      0.000195      0.000465      0.000000
     23 O     c       0.000345     -0.000060     -0.000297      0.000000
     24 O     c       0.000193     -0.000104     -0.000457      0.000000
     25 O     c      -0.000521     -0.000288     -0.000434      0.000000
     26 O     c      -0.000242      0.000232      0.000407      0.000000
     27 O     c       0.000046      0.000222     -0.000536      0.000000
     28 O     c       0.000066     -0.000047     -0.000002      0.000000
--------------------------------------------------------------------------------
  Maximum abs         0.000521      0.000574      0.001380      0.000000
--------------------------------------------------------------------------------


  Time to end of optimisation =      17.6540 seconds


  Peak dynamic memory used =       2.03 MB 


  Timing analysis for GULP :

--------------------------------------------------------------------------------
  Task / Subroutine                                          Time (Seconds)
--------------------------------------------------------------------------------
  Calculation of reciprocal space energy and derivatives          0.7075
  Calculation of real space energy and derivatives               16.7837
  Calculation and manipulation of Hessian matrix                  0.0956
  Global summation overhead                                       0.0016
--------------------------------------------------------------------------------
  Total CPU time                                                 17.6540
--------------------------------------------------------------------------------


  Job Finished at 16:18.44 11th June       2024                               

