********************************************************************************
*                       GENERAL UTILITY LATTICE PROGRAM                        *
*                                 Julian Gale                                  *
*                       Curtin Institute for Computation                       *
*                    School of Molecular and Life Sciences                     *
*                    Curtin University, Western Australia                      *
********************************************************************************
* Version = 6.0.0 * Last modified =  12th July 2021                            *
********************************************************************************
*  optimise     - perform optimisation run                                     *
*  conp         - constant pressure calculation                                *
*  nosymmetry   - turn off symmetry after initial structure generation         *
*  conjugate    - use conjugate gradients minimiser                            *
********************************************************************************

  Job Started  at 16:17.12 11th June       2024                               

  Number of CPUs =     1


  Total number of configurations input =      1

********************************************************************************
*  Input for Configuration =   1                                               *
********************************************************************************

  Formula = Al8Mg4O16                                                   

  Number of irreducible atoms/shells =      28


  Total number atoms/shells =      28

  Dimensionality = 3               :  Bulk   



  Cartesian lattice vectors (Angstroms) :

       12.393494   -3.113090   -3.666226
       -2.854374    8.951456    0.676197
       -0.284579    0.145701    2.122535

  Cell parameters (Angstroms/Degrees):

  a =      13.2940    alpha =  79.8828
  b =       9.4198    beta  = 114.3430
  c =       2.1465    gamma = 121.6559

  Initial cell volume =         208.176407 Angs**3

  Temperature of configuration =   0.00     K 

  Pressure of configuration =       100.000 GPa 

  Fractional coordinates of asymmetric unit :

--------------------------------------------------------------------------------
   No.  Atomic       x           y          z         Charge      Occupancy
        Label      (Frac)      (Frac)     (Frac)        (e)         (Frac)  
--------------------------------------------------------------------------------
      1 Al    c    0.248792    0.000000    0.179612     3.00000    1.000000    
      2 Al    c    0.821262 *  0.119653 *  0.393123 *   3.00000    1.000000    
      3 Al    c    0.701609 *  0.452817 *  0.179612 *   3.00000    1.000000    
      4 Al    c    0.368445 *  0.572471 *  0.393123 *   3.00000    1.000000    
      5 Al    c    0.050458 *  0.810500 *  0.791779 *   3.00000    1.000000    
      6 Al    c    0.503276 *  0.357682 *  0.791779 *   3.00000    1.000000    
      7 Al    c    0.170112 *  0.477337 *  0.099654 *   3.00000    1.000000    
      8 Al    c    0.622929 *  0.024519 *  0.099654 *   3.00000    1.000000    
      9 Mg    c    0.806288 *  0.609096 *  0.530823 *   2.00000    1.000000    
     10 Mg    c    0.065433 *  0.321058 *  0.654079 *   2.00000    1.000000    
     11 Mg    c    0.353470 *  0.156278 *  0.530823 *   2.00000    1.000000    
     12 Mg    c    0.518251 *  0.773876 *  0.654079 *   2.00000    1.000000    
     13 O     c    0.323785 *  0.353545 *  0.234575 *  -2.00000    1.000000    
     14 O     c    0.901058 *  0.554590 *  0.845373 *  -2.00000    1.000000    
     15 O     c    0.162252 *  0.643743 *  0.363240 *  -2.00000    1.000000    
     16 O     c    0.876298 *  0.375563 *  0.339527 *  -2.00000    1.000000    
     17 O     c    0.776603 *  0.806363 *  0.234575 *  -2.00000    1.000000    
     18 O     c    0.448240 *  0.101773 *  0.845373 *  -2.00000    1.000000    
     19 O     c    0.615069 *  0.190925 *  0.363240 *  -2.00000    1.000000    
     20 O     c    0.423480 *  0.828381 *  0.339527 *  -2.00000    1.000000    
     21 O     c    0.121557 *  0.073640 *  0.490556 *  -2.00000    1.000000    
     22 O     c    0.256651 *  0.739228 *  0.821661 *  -2.00000    1.000000    
     23 O     c    0.574375 *  0.526457 *  0.490556 *  -2.00000    1.000000    
     24 O     c    0.709468 *  0.286411 *  0.821661 *  -2.00000    1.000000    
     25 O     c    0.750164 *  0.856513 *  0.694344 *  -2.00000    1.000000    
     26 O     c    0.297346 *  0.403696 *  0.694344 *  -2.00000    1.000000    
     27 O     c    0.095118 *  0.123791 *  0.044690 *  -2.00000    1.000000    
     28 O     c    0.547935 *  0.576609 *  0.044690 *  -2.00000    1.000000    
--------------------------------------------------------------------------------



********************************************************************************
*  General input information                                                   *
********************************************************************************

  Species output for all configurations : 

--------------------------------------------------------------------------------
  Species    Type    Atomic    Atomic    Charge       Radii (Angs)     Library
                     Number     Mass       (e)     Cova   Ionic  VDW   Symbol
--------------------------------------------------------------------------------
    Mg       Core       12      24.31   2.000000   1.100  0.000  1.640          
    Al       Core       13      26.98   3.000000   1.350  0.000  2.050          
    O        Core        8      16.00  -2.000000   0.730  0.000  1.360          
--------------------------------------------------------------------------------


  Lattice summation method               =    Ewald          (3-D)
                                         =    Parry          (2-D)
                                         =    Saunders et al (1-D)
  Accuracy factor for lattice sums       =   12.000


  Analytic derivatives to be used

  Time limit = Infinity

  Maximum range for interatomic potentials =    100000.000000 Angstroms

  General interatomic potentials :

--------------------------------------------------------------------------------
Atom  Types   Potential      Parameter       Value         Units   Cutoffs(Ang)
  1     2                                                            Min /  Max 
--------------------------------------------------------------------------------
O    c Mg   c Lennard       Lennard-Jones A  1.5000000    eV*Ang^m  0.000  6.000
                            Lennard-Jones B  0.0000000    eV*Ang^n  
                            Exponent m        12          None
                            Exponent n         6          None
--------------------------------------------------------------------------------
O    c Al   c Lennard       Lennard-Jones A  1.5000000    eV*Ang^m  0.000  6.000
                            Lennard-Jones B  0.0000000    eV*Ang^n  
                            Exponent m        12          None
                            Exponent n         6          None
--------------------------------------------------------------------------------
O    c O    c Lennard       Lennard-Jones A  1.5000000    eV*Ang^m  0.000  6.000
                            Lennard-Jones B  0.0000000    eV*Ang^n  
                            Exponent m        12          None
                            Exponent n         6          None
--------------------------------------------------------------------------------
Mg   c Mg   c Lennard       Lennard-Jones A  1.5000000    eV*Ang^m  0.000  6.000
                            Lennard-Jones B  0.0000000    eV*Ang^n  
                            Exponent m        12          None
                            Exponent n         6          None
--------------------------------------------------------------------------------
Mg   c Al   c Lennard       Lennard-Jones A  1.5000000    eV*Ang^m  0.000  6.000
                            Lennard-Jones B  0.0000000    eV*Ang^n  
                            Exponent m        12          None
                            Exponent n         6          None
--------------------------------------------------------------------------------
Al   c Al   c Lennard       Lennard-Jones A  1.5000000    eV*Ang^m  0.000  6.000
                            Lennard-Jones B  0.0000000    eV*Ang^n  
                            Exponent m        12          None
                            Exponent n         6          None
--------------------------------------------------------------------------------
O    c Mg   c Buckingham    Buckingham A     1428.5000    eV        0.000  7.000
                            Buckingham rho  0.29450000    Ang       
                            Buckingham C     0.0000000    eV*Ang^6  
--------------------------------------------------------------------------------
O    c Al   c Buckingham    Buckingham A     1114.9000    eV        0.000  7.000
                            Buckingham rho  0.31180000    Ang       
                            Buckingham C     0.0000000    eV*Ang^6  
--------------------------------------------------------------------------------
O    c O    c Buckingham    Buckingham A     2023.8000    eV        0.000  7.000
                            Buckingham rho  0.26740000    Ang       
                            Buckingham C     0.0000000    eV*Ang^6  
--------------------------------------------------------------------------------

********************************************************************************
*  Output for configuration   1                                                *
********************************************************************************


  Components of enthalpy : 

--------------------------------------------------------------------------------
  Interatomic potentials     =         369.47668132 eV    
  Monopole - monopole (real) =         143.86141099 eV    
  Monopole - monopole (recip)=        -436.21897338 eV    
  Monopole - monopole (total)=        -292.35756239 eV    
  Pressure*volume            =         129.93249045 eV    
--------------------------------------------------------------------------------
  Total lattice enthalpy     =         207.05160938 eV    
--------------------------------------------------------------------------------
  Total lattice enthalpy     =           19977.3152 kJ/(mole unit cells)
--------------------------------------------------------------------------------


  Number of variables =       87

  Maximum number of calculations  =           850
  Maximum Hessian update interval =            10
  Maximum step size               =   1.000000000
  Maximum parameter tolerance     =   0.000010000
  Maximum function  tolerance     =   0.000010000
  Maximum gradient  tolerance     =   0.001000000
  Maximum gradient  component     =   0.010000000

  Cell parameters to be optimised using strains

  Conjugate gradient optimiser to be used

  Lower half triangular hessian to be used

  Minimiser to switch to RFO
  When gradient norm is less than     0.010000

  Start of bulk optimisation :

  Cycle:      0 Energy:       207.051609  Gnorm:     62.448656  CPU:    0.093
  Cycle:      1 Energy:      -364.396727  Gnorm:     18.877344  CPU:    0.399
  Cycle:      2 Energy:      -450.578399  Gnorm:     15.042718  CPU:    0.591
  Cycle:      3 Energy:      -501.637476  Gnorm:     11.890819  CPU:    0.816
  Cycle:      4 Energy:      -555.659428  Gnorm:      7.550853  CPU:    1.004
  Cycle:      5 Energy:      -573.328180  Gnorm:      5.122376  CPU:    1.193
  Cycle:      6 Energy:      -584.470288  Gnorm:      3.818958  CPU:    1.381
  Cycle:      7 Energy:      -593.465249  Gnorm:      2.880670  CPU:    1.570
  Cycle:      8 Energy:      -598.832806  Gnorm:      1.939856  CPU:    1.759
  Cycle:      9 Energy:      -602.331998  Gnorm:      1.931566  CPU:    1.948
  Cycle:     10 Energy:      -603.763308  Gnorm:      1.407082  CPU:    2.097
  Cycle:     11 Energy:      -605.536389  Gnorm:      1.595171  CPU:    2.291
  Cycle:     12 Energy:      -607.192582  Gnorm:      1.707999  CPU:    2.443
  Cycle:     13 Energy:      -609.470055  Gnorm:      1.936535  CPU:    2.637
  Cycle:     14 Energy:      -612.115219  Gnorm:      1.798799  CPU:    2.791
  Cycle:     15 Energy:      -614.054750  Gnorm:      1.684998  CPU:    2.951
  Cycle:     16 Energy:      -615.964725  Gnorm:      1.440304  CPU:    3.146
  Cycle:     17 Energy:      -617.305160  Gnorm:      1.494583  CPU:    3.341
  Cycle:     18 Energy:      -618.914823  Gnorm:      1.636167  CPU:    3.536
  Cycle:     19 Energy:      -620.854195  Gnorm:      1.616221  CPU:    3.732
  Cycle:     20 Energy:      -621.636422  Gnorm:      1.083111  CPU:    3.890
  Cycle:     21 Energy:      -622.621600  Gnorm:      1.013161  CPU:    4.086
  Cycle:     22 Energy:      -623.318071  Gnorm:      1.144383  CPU:    4.244
  Cycle:     23 Energy:      -624.023033  Gnorm:      0.865145  CPU:    4.401
  Cycle:     24 Energy:      -624.650873  Gnorm:      1.148647  CPU:    4.596
  Cycle:     25 Energy:      -625.616826  Gnorm:      1.141847  CPU:    4.790
  Cycle:     26 Energy:      -626.507334  Gnorm:      1.116804  CPU:    4.901
  Cycle:     27 Energy:      -627.446496  Gnorm:      1.228070  CPU:    5.024
  Cycle:     28 Energy:      -628.319876  Gnorm:      0.976870  CPU:    5.124
  Cycle:     29 Energy:      -629.136493  Gnorm:      1.173994  CPU:    5.247
  Cycle:     30 Energy:      -629.567012  Gnorm:      0.705708  CPU:    5.348
  Cycle:     31 Energy:      -630.032647  Gnorm:      0.784961  CPU:    5.471
  Cycle:     32 Energy:      -630.490424  Gnorm:      0.717544  CPU:    5.571
  Cycle:     33 Energy:      -630.752212  Gnorm:      0.745011  CPU:    5.673
  Cycle:     34 Energy:      -631.414061  Gnorm:      0.787527  CPU:    5.797
  Cycle:     35 Energy:      -631.817734  Gnorm:      0.917132  CPU:    5.899
  Cycle:     36 Energy:      -632.528589  Gnorm:      0.917643  CPU:    6.025
  Cycle:     37 Energy:      -633.136175  Gnorm:      1.012158  CPU:    6.128
  Cycle:     38 Energy:      -633.874841  Gnorm:      1.088279  CPU:    6.317
  Cycle:     39 Energy:      -634.743110  Gnorm:      1.121976  CPU:    6.516
  Cycle:     40 Energy:      -635.209607  Gnorm:      0.827934  CPU:    6.678
  Cycle:     41 Energy:      -635.583343  Gnorm:      0.778027  CPU:    6.878
  Cycle:     42 Energy:      -636.065790  Gnorm:      0.796392  CPU:    7.074
  Cycle:     43 Energy:      -636.500385  Gnorm:      0.738325  CPU:    7.232
  Cycle:     44 Energy:      -636.822350  Gnorm:      0.722382  CPU:    7.390
  Cycle:     45 Energy:      -637.297901  Gnorm:      0.763059  CPU:    7.586
  Cycle:     46 Energy:      -637.552336  Gnorm:      0.572206  CPU:    7.744
  Cycle:     47 Energy:      -637.856686  Gnorm:      0.659813  CPU:    7.939
  Cycle:     48 Energy:      -638.093955  Gnorm:      0.610752  CPU:    8.097
  Cycle:     49 Energy:      -638.301345  Gnorm:      0.551736  CPU:    8.292
  Cycle:     50 Energy:      -638.428339  Gnorm:      0.483463  CPU:    8.450
  Cycle:     51 Energy:      -638.599942  Gnorm:      0.527609  CPU:    8.646
  Cycle:     52 Energy:      -638.797283  Gnorm:      0.492873  CPU:    8.841
  Cycle:     53 Energy:      -638.951002  Gnorm:      0.535419  CPU:    9.000
  Cycle:     54 Energy:      -639.243190  Gnorm:      0.596428  CPU:    9.196
  Cycle:     55 Energy:      -639.438931  Gnorm:      0.563725  CPU:    9.355
  Cycle:     56 Energy:      -639.700889  Gnorm:      0.596853  CPU:    9.556
  Cycle:     57 Energy:      -639.970081  Gnorm:      0.524012  CPU:    9.757
  Cycle:     58 Energy:      -640.191480  Gnorm:      0.539552  CPU:    9.958
  Cycle:     59 Energy:      -640.380158  Gnorm:      0.572500  CPU:   10.120
  Cycle:     60 Energy:      -640.502498  Gnorm:      0.448891  CPU:   10.282
  Cycle:     61 Energy:      -640.637481  Gnorm:      0.407934  CPU:   10.483
  Cycle:     62 Energy:      -640.796101  Gnorm:      0.474464  CPU:   10.683
  Cycle:     63 Energy:      -640.933087  Gnorm:      0.413252  CPU:   10.846
  Cycle:     64 Energy:      -641.039785  Gnorm:      0.428441  CPU:   11.046
  Cycle:     65 Energy:      -641.169322  Gnorm:      0.395146  CPU:   11.245
  Cycle:     66 Energy:      -641.245832  Gnorm:      0.273552  CPU:   11.407
  Cycle:     67 Energy:      -641.324926  Gnorm:      0.351903  CPU:   11.606
  Cycle:     68 Energy:      -641.387813  Gnorm:      0.313568  CPU:   11.763
  Cycle:     69 Energy:      -641.456930  Gnorm:      0.305265  CPU:   11.958
  Cycle:     70 Energy:      -641.493318  Gnorm:      0.251734  CPU:   12.114
  Cycle:     71 Energy:      -641.541546  Gnorm:      0.264312  CPU:   12.271
  Cycle:     72 Energy:      -641.592630  Gnorm:      0.260005  CPU:   12.469
  Cycle:     73 Energy:      -641.649398  Gnorm:      0.285111  CPU:   12.663
  Cycle:     74 Energy:      -641.728076  Gnorm:      0.329425  CPU:   12.858
  Cycle:     75 Energy:      -641.777765  Gnorm:      0.252802  CPU:   13.014
  Cycle:     76 Energy:      -641.830053  Gnorm:      0.301514  CPU:   13.208
  Cycle:     77 Energy:      -641.892108  Gnorm:      0.250708  CPU:   13.364
  Cycle:     78 Energy:      -641.947110  Gnorm:      0.252431  CPU:   13.558
  Cycle:     79 Energy:      -641.999859  Gnorm:      0.362517  CPU:   13.751
  Cycle:     80 Energy:      -642.037772  Gnorm:      0.223057  CPU:   13.907
  Cycle:     81 Energy:      -642.082650  Gnorm:      0.217173  CPU:   14.101
  Cycle:     82 Energy:      -642.126563  Gnorm:      0.256745  CPU:   14.295
  Cycle:     83 Energy:      -642.165619  Gnorm:      0.218477  CPU:   14.451
  Cycle:     84 Energy:      -642.198219  Gnorm:      0.232987  CPU:   14.645
  Cycle:     85 Energy:      -642.236077  Gnorm:      0.215288  CPU:   14.838
  Cycle:     86 Energy:      -642.271085  Gnorm:      0.184854  CPU:   15.032
  Cycle:     87 Energy:      -642.302742  Gnorm:      0.214464  CPU:   15.225
  Cycle:     88 Energy:      -642.334287  Gnorm:      0.207340  CPU:   15.381
  Cycle:     89 Energy:      -642.359865  Gnorm:      0.237971  CPU:   15.537
  Cycle:     90 Energy:      -642.380172  Gnorm:      0.184561  CPU:   15.693
  Cycle:     91 Energy:      -642.406962  Gnorm:      0.197298  CPU:   15.849
  Cycle:     92 Energy:      -642.433431  Gnorm:      0.178433  CPU:   16.005
  Cycle:     93 Energy:      -642.465374  Gnorm:      0.202186  CPU:   16.201
  Cycle:     94 Energy:      -642.501870  Gnorm:      0.201575  CPU:   16.360
  Cycle:     95 Energy:      -642.522916  Gnorm:      0.183327  CPU:   16.515
  Cycle:     96 Energy:      -642.554163  Gnorm:      0.219058  CPU:   16.711
  Cycle:     97 Energy:      -642.587342  Gnorm:      0.200836  CPU:   16.865
  Cycle:     98 Energy:      -642.620836  Gnorm:      0.200199  CPU:   17.060
  Cycle:     99 Energy:      -642.649690  Gnorm:      0.273029  CPU:   17.214
  Cycle:    100 Energy:      -642.673087  Gnorm:      0.188774  CPU:   17.369
  Cycle:    101 Energy:      -642.703261  Gnorm:      0.182486  CPU:   17.564
  Cycle:    102 Energy:      -642.731692  Gnorm:      0.210875  CPU:   17.719
  Cycle:    103 Energy:      -642.758529  Gnorm:      0.172730  CPU:   17.873
  Cycle:    104 Energy:      -642.777815  Gnorm:      0.176612  CPU:   18.027
  Cycle:    105 Energy:      -642.803576  Gnorm:      0.175586  CPU:   18.219
  Cycle:    106 Energy:      -642.829474  Gnorm:      0.152516  CPU:   18.410
  Cycle:    107 Energy:      -642.852000  Gnorm:      0.179857  CPU:   18.602
  Cycle:    108 Energy:      -642.872074  Gnorm:      0.169790  CPU:   18.756
  Cycle:    109 Energy:      -642.891815  Gnorm:      0.207191  CPU:   18.947
  Cycle:    110 Energy:      -642.908361  Gnorm:      0.158793  CPU:   19.101
  Cycle:    111 Energy:      -642.926546  Gnorm:      0.169678  CPU:   19.258
  Cycle:    112 Energy:      -642.946139  Gnorm:      0.152473  CPU:   19.450
  Cycle:    113 Energy:      -642.967806  Gnorm:      0.177507  CPU:   19.604
  Cycle:    114 Energy:      -642.990212  Gnorm:      0.179489  CPU:   19.758
  Cycle:    115 Energy:      -643.006721  Gnorm:      0.144623  CPU:   19.911
  Cycle:    116 Energy:      -643.029789  Gnorm:      0.179224  CPU:   20.103
  Cycle:    117 Energy:      -643.058199  Gnorm:      0.178977  CPU:   20.257
  Cycle:    118 Energy:      -643.081517  Gnorm:      0.186379  CPU:   20.415
  Cycle:    119 Energy:      -643.106491  Gnorm:      0.215610  CPU:   20.606
  Cycle:    120 Energy:      -643.126671  Gnorm:      0.178552  CPU:   20.760
  Cycle:    121 Energy:      -643.148212  Gnorm:      0.160550  CPU:   20.951
  Cycle:    122 Energy:      -643.172874  Gnorm:      0.185334  CPU:   21.142
  Cycle:    123 Energy:      -643.195614  Gnorm:      0.148748  CPU:   21.297
  Cycle:    124 Energy:      -643.211388  Gnorm:      0.165252  CPU:   21.451
  Cycle:    125 Energy:      -643.230258  Gnorm:      0.168455  CPU:   21.605
  Cycle:    126 Energy:      -643.253761  Gnorm:      0.149791  CPU:   21.797
  Cycle:    127 Energy:      -643.271858  Gnorm:      0.187040  CPU:   21.988
  Cycle:    128 Energy:      -643.293040  Gnorm:      0.167256  CPU:   22.142
  Cycle:    129 Energy:      -643.315368  Gnorm:      0.206659  CPU:   22.333
  Cycle:    130 Energy:      -643.332860  Gnorm:      0.156344  CPU:   22.487
  Cycle:    131 Energy:      -643.352119  Gnorm:      0.182070  CPU:   22.678
  Cycle:    132 Energy:      -643.371583  Gnorm:      0.154510  CPU:   22.832
  Cycle:    133 Energy:      -643.393316  Gnorm:      0.178198  CPU:   22.985
  Cycle:    134 Energy:      -643.415618  Gnorm:      0.172845  CPU:   23.139
  Cycle:    135 Energy:      -643.432541  Gnorm:      0.151182  CPU:   23.293
  Cycle:    136 Energy:      -643.456209  Gnorm:      0.189689  CPU:   23.483
  Cycle:    137 Energy:      -643.487666  Gnorm:      0.188997  CPU:   23.674
  Cycle:    138 Energy:      -643.512120  Gnorm:      0.194851  CPU:   23.828
  Cycle:    139 Energy:      -643.543522  Gnorm:      0.247072  CPU:   24.019
  Cycle:    140 Energy:      -643.566308  Gnorm:      0.194751  CPU:   24.172
  Cycle:    141 Energy:      -643.591222  Gnorm:      0.167092  CPU:   24.363
  Cycle:    142 Energy:      -643.616596  Gnorm:      0.215897  CPU:   24.554
  Cycle:    143 Energy:      -643.649736  Gnorm:      0.168148  CPU:   24.745
  Cycle:    144 Energy:      -643.666284  Gnorm:      0.164892  CPU:   24.899
  Cycle:    145 Energy:      -643.691110  Gnorm:      0.172066  CPU:   25.090
  Cycle:    146 Energy:      -643.715028  Gnorm:      0.171136  CPU:   25.244
  Cycle:    147 Energy:      -643.737885  Gnorm:      0.182910  CPU:   25.436
  Cycle:    148 Energy:      -643.765813  Gnorm:      0.200474  CPU:   25.627
  Cycle:    149 Energy:      -643.790671  Gnorm:      0.227584  CPU:   25.782
  Cycle:    150 Energy:      -643.811473  Gnorm:      0.179306  CPU:   25.936
  Cycle:    151 Energy:      -643.833321  Gnorm:      0.170995  CPU:   26.127
  Cycle:    152 Energy:      -643.852655  Gnorm:      0.155874  CPU:   26.282
  Cycle:    153 Energy:      -643.871865  Gnorm:      0.168722  CPU:   26.436
  Cycle:    154 Energy:      -643.895297  Gnorm:      0.170208  CPU:   26.628
  Cycle:    155 Energy:      -643.911338  Gnorm:      0.140801  CPU:   26.782
  Cycle:    156 Energy:      -643.940871  Gnorm:      0.208761  CPU:   26.973
  Cycle:    157 Energy:      -643.968759  Gnorm:      0.161674  CPU:   27.127
  Cycle:    158 Energy:      -643.988904  Gnorm:      0.167206  CPU:   27.282
  Cycle:    159 Energy:      -644.009219  Gnorm:      0.219713  CPU:   27.473
  Cycle:    160 Energy:      -644.025374  Gnorm:      0.147175  CPU:   27.628
  Cycle:    161 Energy:      -644.038564  Gnorm:      0.120926  CPU:   27.820
  Cycle:    162 Energy:      -644.058461  Gnorm:      0.181671  CPU:   27.975
  Cycle:    163 Energy:      -644.083083  Gnorm:      0.153685  CPU:   28.129
  Cycle:    164 Energy:      -644.094499  Gnorm:      0.121040  CPU:   28.283
  Cycle:    165 Energy:      -644.106185  Gnorm:      0.130213  CPU:   28.475
  Cycle:    166 Energy:      -644.121826  Gnorm:      0.125219  CPU:   28.666
  Cycle:    167 Energy:      -644.136542  Gnorm:      0.165107  CPU:   28.857
  Cycle:    168 Energy:      -644.160644  Gnorm:      0.173079  CPU:   29.048
  Cycle:    169 Energy:      -644.181872  Gnorm:      0.215579  CPU:   29.202
  Cycle:    170 Energy:      -644.195482  Gnorm:      0.121334  CPU:   29.355
  Cycle:    171 Energy:      -644.210764  Gnorm:      0.128273  CPU:   29.546
  Cycle:    172 Energy:      -644.218975  Gnorm:      0.094697  CPU:   29.700
  Cycle:    173 Energy:      -644.227218  Gnorm:      0.106831  CPU:   29.855
  Cycle:    174 Energy:      -644.234863  Gnorm:      0.109036  CPU:   30.009
  Cycle:    175 Energy:      -644.243408  Gnorm:      0.111093  CPU:   30.200
  Cycle:    176 Energy:      -644.262306  Gnorm:      0.155784  CPU:   30.392
  Cycle:    177 Energy:      -644.282190  Gnorm:      0.130072  CPU:   30.546
  Cycle:    178 Energy:      -644.294999  Gnorm:      0.110518  CPU:   30.700
  Cycle:    179 Energy:      -644.307111  Gnorm:      0.176868  CPU:   30.892
  Cycle:    180 Energy:      -644.316585  Gnorm:      0.099016  CPU:   31.046
  Cycle:    181 Energy:      -644.324938  Gnorm:      0.091954  CPU:   31.237
  Cycle:    182 Energy:      -644.337768  Gnorm:      0.132105  CPU:   31.429
  Cycle:    183 Energy:      -644.348651  Gnorm:      0.111262  CPU:   31.583
  Cycle:    184 Energy:      -644.354526  Gnorm:      0.076739  CPU:   31.737
  Cycle:    185 Energy:      -644.359069  Gnorm:      0.074784  CPU:   31.892
  Cycle:    186 Energy:      -644.363757  Gnorm:      0.076400  CPU:   32.083
  Cycle:    187 Energy:      -644.368328  Gnorm:      0.101450  CPU:   32.237
  Cycle:    188 Energy:      -644.378838  Gnorm:      0.094363  CPU:   32.391
  Cycle:    189 Energy:      -644.391035  Gnorm:      0.135399  CPU:   32.583
  Cycle:    190 Energy:      -644.397380  Gnorm:      0.080892  CPU:   32.737
  Cycle:    191 Energy:      -644.402466  Gnorm:      0.078382  CPU:   32.892
  Cycle:    192 Energy:      -644.406745  Gnorm:      0.071638  CPU:   33.046
  Cycle:    193 Energy:      -644.409971  Gnorm:      0.060923  CPU:   33.200
  Cycle:    194 Energy:      -644.414651  Gnorm:      0.076391  CPU:   33.392
  Cycle:    195 Energy:      -644.417732  Gnorm:      0.075131  CPU:   33.554
  Cycle:    196 Energy:      -644.425907  Gnorm:      0.095060  CPU:   33.745
  Cycle:    197 Energy:      -644.433049  Gnorm:      0.091515  CPU:   33.901
  Cycle:    198 Energy:      -644.438153  Gnorm:      0.079744  CPU:   34.060
  Cycle:    199 Energy:      -644.442526  Gnorm:      0.079877  CPU:   34.251
  Cycle:    200 Energy:      -644.446012  Gnorm:      0.072398  CPU:   34.405
  Cycle:    201 Energy:      -644.449075  Gnorm:      0.066517  CPU:   34.559
  Cycle:    202 Energy:      -644.454584  Gnorm:      0.083621  CPU:   34.712
  Cycle:    203 Energy:      -644.459722  Gnorm:      0.064597  CPU:   34.866
  Cycle:    204 Energy:      -644.462518  Gnorm:      0.061785  CPU:   35.020
  Cycle:    205 Energy:      -644.465384  Gnorm:      0.059836  CPU:   35.174
  Cycle:    206 Energy:      -644.468041  Gnorm:      0.051953  CPU:   35.328
  Cycle:    207 Energy:      -644.470612  Gnorm:      0.060774  CPU:   35.482
  Cycle:    208 Energy:      -644.473855  Gnorm:      0.065991  CPU:   35.636
  Cycle:    209 Energy:      -644.478586  Gnorm:      0.099605  CPU:   35.790
  Cycle:    210 Energy:      -644.482119  Gnorm:      0.060885  CPU:   35.944
  Cycle:    211 Energy:      -644.484965  Gnorm:      0.053259  CPU:   36.098
  Cycle:    212 Energy:      -644.486980  Gnorm:      0.044169  CPU:   36.251
  Cycle:    213 Energy:      -644.488964  Gnorm:      0.057146  CPU:   36.406
  Cycle:    214 Energy:      -644.491487  Gnorm:      0.054868  CPU:   36.560
  Cycle:    215 Energy:      -644.493228  Gnorm:      0.049828  CPU:   36.714
  Cycle:    216 Energy:      -644.496383  Gnorm:      0.072993  CPU:   36.869
  Cycle:    217 Energy:      -644.500595  Gnorm:      0.053471  CPU:   37.024
  Cycle:    218 Energy:      -644.502600  Gnorm:      0.054924  CPU:   37.178
  Cycle:    219 Energy:      -644.504807  Gnorm:      0.060213  CPU:   37.332
  Cycle:    220 Energy:      -644.506428  Gnorm:      0.047007  CPU:   37.486
  Cycle:    221 Energy:      -644.507722  Gnorm:      0.037558  CPU:   37.640
  Cycle:    222 Energy:      -644.509802  Gnorm:      0.063201  CPU:   37.794
  Cycle:    223 Energy:      -644.513211  Gnorm:      0.045440  CPU:   37.948
  Cycle:    224 Energy:      -644.514244  Gnorm:      0.042696  CPU:   38.103
  Cycle:    225 Energy:      -644.516086  Gnorm:      0.043412  CPU:   38.265
  Cycle:    226 Energy:      -644.517515  Gnorm:      0.040856  CPU:   38.421
  Cycle:    227 Energy:      -644.518861  Gnorm:      0.045161  CPU:   38.575
  Cycle:    228 Energy:      -644.521045  Gnorm:      0.061588  CPU:   38.729
  Cycle:    229 Energy:      -644.525142  Gnorm:      0.081634  CPU:   38.919
  Cycle:    230 Energy:      -644.527965  Gnorm:      0.055020  CPU:   39.077
  Cycle:    231 Energy:      -644.529781  Gnorm:      0.034363  CPU:   39.236
  Cycle:    232 Energy:      -644.530513  Gnorm:      0.030581  CPU:   39.394
  Cycle:    233 Energy:      -644.531214  Gnorm:      0.031792  CPU:   39.552
  Cycle:    234 Energy:      -644.532629  Gnorm:      0.035776  CPU:   39.711
  Cycle:    235 Energy:      -644.533419  Gnorm:      0.038741  CPU:   39.872
  Cycle:    236 Energy:      -644.535807  Gnorm:      0.066952  CPU:   40.067
  Cycle:    237 Energy:      -644.540906  Gnorm:      0.076702  CPU:   40.225
  Cycle:    238 Energy:      -644.543862  Gnorm:      0.052169  CPU:   40.383
  Cycle:    239 Energy:      -644.545559  Gnorm:      0.052375  CPU:   40.541
  Cycle:    240 Energy:      -644.546619  Gnorm:      0.036025  CPU:   40.699
  Cycle:    241 Energy:      -644.547730  Gnorm:      0.044924  CPU:   40.857
  Cycle:    242 Energy:      -644.549907  Gnorm:      0.054630  CPU:   41.015
  Cycle:    243 Energy:      -644.552192  Gnorm:      0.036626  CPU:   41.174
  Cycle:    244 Energy:      -644.552983  Gnorm:      0.031098  CPU:   41.334
  Cycle:    245 Energy:      -644.553599  Gnorm:      0.029455  CPU:   41.493
  Cycle:    246 Energy:      -644.554483  Gnorm:      0.026093  CPU:   41.651
  Cycle:    247 Energy:      -644.554912  Gnorm:      0.026315  CPU:   41.810
  Cycle:    248 Energy:      -644.555782  Gnorm:      0.042990  CPU:   41.968
  Cycle:    249 Energy:      -644.558367  Gnorm:      0.071280  CPU:   42.128
  Cycle:    250 Energy:      -644.560152  Gnorm:      0.038865  CPU:   42.319
  Cycle:    251 Energy:      -644.561016  Gnorm:      0.027830  CPU:   42.476
  Cycle:    252 Energy:      -644.561508  Gnorm:      0.028096  CPU:   42.635
  Cycle:    253 Energy:      -644.562252  Gnorm:      0.027393  CPU:   42.791
  Cycle:    254 Energy:      -644.563249  Gnorm:      0.035837  CPU:   42.950
  Cycle:    255 Energy:      -644.564055  Gnorm:      0.029424  CPU:   43.107
  Cycle:    256 Energy:      -644.564754  Gnorm:      0.033174  CPU:   43.265
  Cycle:    257 Energy:      -644.565601  Gnorm:      0.031392  CPU:   43.421
  Cycle:    258 Energy:      -644.566493  Gnorm:      0.026195  CPU:   43.579
  Cycle:    259 Energy:      -644.567165  Gnorm:      0.035531  CPU:   43.738
  Cycle:    260 Energy:      -644.567622  Gnorm:      0.024591  CPU:   43.895
  Cycle:    261 Energy:      -644.568337  Gnorm:      0.025999  CPU:   44.049
  Cycle:    262 Energy:      -644.568975  Gnorm:      0.028496  CPU:   44.203
  Cycle:    263 Energy:      -644.569554  Gnorm:      0.024836  CPU:   44.356
  Cycle:    264 Energy:      -644.570178  Gnorm:      0.035559  CPU:   44.510
  Cycle:    265 Energy:      -644.571086  Gnorm:      0.031540  CPU:   44.663
  Cycle:    266 Energy:      -644.571844  Gnorm:      0.023570  CPU:   44.818
  Cycle:    267 Energy:      -644.572277  Gnorm:      0.026914  CPU:   45.008
  Cycle:    268 Energy:      -644.572915  Gnorm:      0.028909  CPU:   45.162
  Cycle:    269 Energy:      -644.574043  Gnorm:      0.052493  CPU:   45.315
  Cycle:    270 Energy:      -644.574965  Gnorm:      0.028501  CPU:   45.471
  Cycle:    271 Energy:      -644.575514  Gnorm:      0.024801  CPU:   45.624
  Cycle:    272 Energy:      -644.575905  Gnorm:      0.023074  CPU:   45.778
  Cycle:    273 Energy:      -644.576376  Gnorm:      0.022616  CPU:   45.968
  Cycle:    274 Energy:      -644.577021  Gnorm:      0.026258  CPU:   46.123
  Cycle:    275 Energy:      -644.577539  Gnorm:      0.025890  CPU:   46.276
  Cycle:    276 Energy:      -644.578216  Gnorm:      0.029083  CPU:   46.430
  Cycle:    277 Energy:      -644.578833  Gnorm:      0.026991  CPU:   46.585
  Cycle:    278 Energy:      -644.579375  Gnorm:      0.019917  CPU:   46.738
  Cycle:    279 Energy:      -644.579856  Gnorm:      0.030619  CPU:   46.891
  Cycle:    280 Energy:      -644.580280  Gnorm:      0.020085  CPU:   47.044
  Cycle:    281 Energy:      -644.580725  Gnorm:      0.026454  CPU:   47.198
  Cycle:    282 Energy:      -644.581196  Gnorm:      0.026903  CPU:   47.352
  Cycle:    283 Energy:      -644.581801  Gnorm:      0.025904  CPU:   47.506
  Cycle:    284 Energy:      -644.582242  Gnorm:      0.022790  CPU:   47.660
  Cycle:    285 Energy:      -644.582787  Gnorm:      0.025064  CPU:   47.814
  Cycle:    286 Energy:      -644.583173  Gnorm:      0.019783  CPU:   47.967
  Cycle:    287 Energy:      -644.583533  Gnorm:      0.020644  CPU:   48.120
  Cycle:    288 Energy:      -644.583906  Gnorm:      0.023349  CPU:   48.273
  Cycle:    289 Energy:      -644.584430  Gnorm:      0.032654  CPU:   48.427
  Cycle:    290 Energy:      -644.584888  Gnorm:      0.022409  CPU:   48.581
  Cycle:    291 Energy:      -644.585202  Gnorm:      0.019125  CPU:   48.735
  Cycle:    292 Energy:      -644.585503  Gnorm:      0.019796  CPU:   48.889
  Cycle:    293 Energy:      -644.585979  Gnorm:      0.023265  CPU:   49.042
  Cycle:    294 Energy:      -644.586495  Gnorm:      0.022903  CPU:   49.196
  Cycle:    295 Energy:      -644.586906  Gnorm:      0.022072  CPU:   49.350
  Cycle:    296 Energy:      -644.587258  Gnorm:      0.022609  CPU:   49.503
  Cycle:    297 Energy:      -644.587662  Gnorm:      0.022168  CPU:   49.657
  Cycle:    298 Energy:      -644.588087  Gnorm:      0.019935  CPU:   49.810
  Cycle:    299 Energy:      -644.588365  Gnorm:      0.026927  CPU:   49.964
  Cycle:    300 Energy:      -644.588633  Gnorm:      0.019501  CPU:   50.117
  Cycle:    301 Energy:      -644.589037  Gnorm:      0.021447  CPU:   50.271
  Cycle:    302 Energy:      -644.589406  Gnorm:      0.021395  CPU:   50.424
  Cycle:    303 Energy:      -644.589728  Gnorm:      0.021016  CPU:   50.578
  Cycle:    304 Energy:      -644.590079  Gnorm:      0.021318  CPU:   50.731
  Cycle:    305 Energy:      -644.590527  Gnorm:      0.021820  CPU:   50.885
  Cycle:    306 Energy:      -644.590926  Gnorm:      0.018205  CPU:   51.038
  Cycle:    307 Energy:      -644.591183  Gnorm:      0.017156  CPU:   51.191
  Cycle:    308 Energy:      -644.591452  Gnorm:      0.019865  CPU:   51.344
  Cycle:    309 Energy:      -644.591807  Gnorm:      0.029367  CPU:   51.498
  Cycle:    310 Energy:      -644.592144  Gnorm:      0.019678  CPU:   51.651
  Cycle:    311 Energy:      -644.592401  Gnorm:      0.016585  CPU:   51.804
  Cycle:    312 Energy:      -644.592644  Gnorm:      0.017491  CPU:   51.959
  Cycle:    313 Energy:      -644.593011  Gnorm:      0.020957  CPU:   52.112
  Cycle:    314 Energy:      -644.593398  Gnorm:      0.020308  CPU:   52.265
  Cycle:    315 Energy:      -644.593705  Gnorm:      0.019415  CPU:   52.419
  Cycle:    316 Energy:      -644.593989  Gnorm:      0.019689  CPU:   52.572
  Cycle:    317 Energy:      -644.594296  Gnorm:      0.019967  CPU:   52.763
  Cycle:    318 Energy:      -644.594621  Gnorm:      0.017890  CPU:   52.916
  Cycle:    319 Energy:      -644.594841  Gnorm:      0.022204  CPU:   53.069
  Cycle:    320 Energy:      -644.595050  Gnorm:      0.017675  CPU:   53.222
  Cycle:    321 Energy:      -644.595354  Gnorm:      0.019174  CPU:   53.375
  Cycle:    322 Energy:      -644.595645  Gnorm:      0.018403  CPU:   53.529
  Cycle:    323 Energy:      -644.595903  Gnorm:      0.018672  CPU:   53.682
  Cycle:    324 Energy:      -644.596156  Gnorm:      0.019072  CPU:   53.836
  Cycle:    325 Energy:      -644.596518  Gnorm:      0.019859  CPU:   53.990
  Cycle:    326 Energy:      -644.596842  Gnorm:      0.016152  CPU:   54.143
  Cycle:    327 Energy:      -644.597055  Gnorm:      0.015295  CPU:   54.297
  Cycle:    328 Energy:      -644.597278  Gnorm:      0.018171  CPU:   54.451
  Cycle:    329 Energy:      -644.597559  Gnorm:      0.026662  CPU:   54.604
  Cycle:    330 Energy:      -644.597833  Gnorm:      0.017860  CPU:   54.758
  Cycle:    331 Energy:      -644.598045  Gnorm:      0.014893  CPU:   54.911
  Cycle:    332 Energy:      -644.598247  Gnorm:      0.015674  CPU:   55.065
  Cycle:    333 Energy:      -644.598548  Gnorm:      0.018988  CPU:   55.218
  Cycle:    334 Energy:      -644.598875  Gnorm:      0.017978  CPU:   55.371
  Cycle:    335 Energy:      -644.599103  Gnorm:      0.017503  CPU:   55.525
  Cycle:    336 Energy:      -644.599332  Gnorm:      0.017246  CPU:   55.715
  Cycle:    337 Energy:      -644.599584  Gnorm:      0.017803  CPU:   55.869
  Cycle:    338 Energy:      -644.599838  Gnorm:      0.016019  CPU:   56.024
  Cycle:    339 Energy:      -644.600009  Gnorm:      0.020179  CPU:   56.178
  Cycle:    340 Energy:      -644.600177  Gnorm:      0.015598  CPU:   56.332
  Cycle:    341 Energy:      -644.600418  Gnorm:      0.017021  CPU:   56.523
  Cycle:    342 Energy:      -644.600648  Gnorm:      0.016350  CPU:   56.677
  Cycle:    343 Energy:      -644.600853  Gnorm:      0.016600  CPU:   56.831
  Cycle:    344 Energy:      -644.601046  Gnorm:      0.016918  CPU:   56.984
  Cycle:    345 Energy:      -644.601366  Gnorm:      0.018485  CPU:   57.175
  Cycle:    346 Energy:      -644.601636  Gnorm:      0.014795  CPU:   57.329
  Cycle:    347 Energy:      -644.601818  Gnorm:      0.014015  CPU:   57.483
  Cycle:    348 Energy:      -644.602014  Gnorm:      0.016826  CPU:   57.636
  Cycle:    349 Energy:      -644.602259  Gnorm:      0.025685  CPU:   57.791
  Cycle:    350 Energy:      -644.602501  Gnorm:      0.016558  CPU:   57.945
  Cycle:    351 Energy:      -644.602688  Gnorm:      0.013703  CPU:   58.099
  Cycle:    352 Energy:      -644.602861  Gnorm:      0.014353  CPU:   58.252
  Cycle:    353 Energy:      -644.603112  Gnorm:      0.017797  CPU:   58.406
  Cycle:    354 Energy:      -644.603405  Gnorm:      0.016186  CPU:   58.560
  Cycle:    355 Energy:      -644.603576  Gnorm:      0.015753  CPU:   58.714
  Cycle:    356 Energy:      -644.603761  Gnorm:      0.015447  CPU:   58.868
  Cycle:    357 Energy:      -644.603965  Gnorm:      0.015815  CPU:   59.022
  Cycle:    358 Energy:      -644.604173  Gnorm:      0.014304  CPU:   59.176
  Cycle:    359 Energy:      -644.604316  Gnorm:      0.018432  CPU:   59.330
  Cycle:    360 Energy:      -644.604455  Gnorm:      0.013804  CPU:   59.484
  Cycle:    361 Energy:      -644.604649  Gnorm:      0.014743  CPU:   59.675
  Cycle:    362 Energy:      -644.604836  Gnorm:      0.013949  CPU:   59.829
  Cycle:    363 Energy:      -644.605016  Gnorm:      0.013696  CPU:   59.983
  Cycle:    364 Energy:      -644.605166  Gnorm:      0.017427  CPU:   60.137
  Cycle:    365 Energy:      -644.605453  Gnorm:      0.018118  CPU:   60.290
  Cycle:    366 Energy:      -644.605674  Gnorm:      0.013906  CPU:   60.444
  Cycle:    367 Energy:      -644.605839  Gnorm:      0.013359  CPU:   60.598
  Cycle:    368 Energy:      -644.606024  Gnorm:      0.015937  CPU:   60.752
  Cycle:    369 Energy:      -644.606267  Gnorm:      0.026710  CPU:   60.906
  Cycle:    370 Energy:      -644.606503  Gnorm:      0.015620  CPU:   61.060
  Cycle:    371 Energy:      -644.606666  Gnorm:      0.013250  CPU:   61.213
  Cycle:    372 Energy:      -644.606826  Gnorm:      0.013654  CPU:   61.367
  Cycle:    373 Energy:      -644.607010  Gnorm:      0.015868  CPU:   61.521
  Cycle:    374 Energy:      -644.607269  Gnorm:      0.016374  CPU:   61.675
  Cycle:    375 Energy:      -644.607404  Gnorm:      0.013591  CPU:   61.828
  Cycle:    376 Energy:      -644.607601  Gnorm:      0.013690  CPU:   61.982
  Cycle:    377 Energy:      -644.607781  Gnorm:      0.013681  CPU:   62.135
  Cycle:    378 Energy:      -644.607950  Gnorm:      0.011629  CPU:   62.326
  Cycle:    379 Energy:      -644.608095  Gnorm:      0.021625  CPU:   62.479
  Cycle:    380 Energy:      -644.608239  Gnorm:      0.011494  CPU:   62.633
  Cycle:    381 Energy:      -644.608402  Gnorm:      0.013457  CPU:   62.786
  Cycle:    382 Energy:      -644.608570  Gnorm:      0.013572  CPU:   62.940
  Cycle:    383 Energy:      -644.608741  Gnorm:      0.014069  CPU:   63.093
  Cycle:    384 Energy:      -644.608861  Gnorm:      0.014516  CPU:   63.246
  Cycle:    385 Energy:      -644.609107  Gnorm:      0.015642  CPU:   63.400
  Cycle:    386 Energy:      -644.609282  Gnorm:      0.013228  CPU:   63.553
  Cycle:    387 Energy:      -644.609418  Gnorm:      0.013404  CPU:   63.707
  Cycle:    388 Energy:      -644.609547  Gnorm:      0.014123  CPU:   63.860
  Cycle:    389 Energy:      -644.609740  Gnorm:      0.020048  CPU:   64.014
  Cycle:    390 Energy:      -644.609926  Gnorm:      0.013515  CPU:   64.168
  Cycle:    391 Energy:      -644.610057  Gnorm:      0.012823  CPU:   64.322
  Cycle:    392 Energy:      -644.610173  Gnorm:      0.013236  CPU:   64.476
  Cycle:    393 Energy:      -644.610357  Gnorm:      0.015340  CPU:   64.629
  Cycle:    394 Energy:      -644.610592  Gnorm:      0.013768  CPU:   64.783
  Cycle:    395 Energy:      -644.610717  Gnorm:      0.013331  CPU:   64.936
  Cycle:    396 Energy:      -644.610844  Gnorm:      0.013125  CPU:   65.090
  Cycle:    397 Energy:      -644.610993  Gnorm:      0.012816  CPU:   65.243
  Cycle:    398 Energy:      -644.611157  Gnorm:      0.011226  CPU:   65.397
  Cycle:    399 Energy:      -644.611291  Gnorm:      0.019999  CPU:   65.551
  Cycle:    400 Energy:      -644.611422  Gnorm:      0.011225  CPU:   65.705
  Cycle:    401 Energy:      -644.611572  Gnorm:      0.013137  CPU:   65.859
  Cycle:    402 Energy:      -644.611705  Gnorm:      0.012782  CPU:   66.012
  Cycle:    403 Energy:      -644.611836  Gnorm:      0.012268  CPU:   66.166
  Cycle:    404 Energy:      -644.611959  Gnorm:      0.013637  CPU:   66.320
  Cycle:    405 Energy:      -644.612141  Gnorm:      0.016567  CPU:   66.473
  Cycle:    406 Energy:      -644.612321  Gnorm:      0.012850  CPU:   66.627
  Cycle:    407 Energy:      -644.612450  Gnorm:      0.011325  CPU:   66.781
  Cycle:    408 Energy:      -644.612575  Gnorm:      0.013171  CPU:   66.934
  Cycle:    409 Energy:      -644.612717  Gnorm:      0.018002  CPU:   67.089
  Cycle:    410 Energy:      -644.612847  Gnorm:      0.013417  CPU:   67.242
  Cycle:    411 Energy:      -644.612975  Gnorm:      0.010699  CPU:   67.396
  Cycle:    412 Energy:      -644.613099  Gnorm:      0.012638  CPU:   67.586
  Cycle:    413 Energy:      -644.613291  Gnorm:      0.015528  CPU:   67.739
  Cycle:    414 Energy:      -644.613466  Gnorm:      0.013122  CPU:   67.892
  Cycle:    415 Energy:      -644.613580  Gnorm:      0.011782  CPU:   68.045
  Cycle:    416 Energy:      -644.613683  Gnorm:      0.012403  CPU:   68.198
  Cycle:    417 Energy:      -644.613807  Gnorm:      0.012590  CPU:   68.388
  Cycle:    418 Energy:      -644.613962  Gnorm:      0.010132  CPU:   68.541
  Cycle:    419 Energy:      -644.614188  Gnorm:      0.029633  CPU:   68.698
  Cycle:    420 Energy:      -644.614402  Gnorm:      0.010284  CPU:   68.855
  Cycle:    421 Energy:      -644.614510  Gnorm:      0.013222  CPU:   69.012
  Cycle:    422 Energy:      -644.614649  Gnorm:      0.011025  CPU:   69.170
  Cycle:    423 Energy:      -644.614756  Gnorm:      0.011565  CPU:   69.326
  Cycle:    424 Energy:      -644.614873  Gnorm:      0.012602  CPU:   69.484
  Cycle:    425 Energy:      -644.615019  Gnorm:      0.014774  CPU:   69.640
  Cycle:    426 Energy:      -644.615181  Gnorm:      0.013334  CPU:   69.798
  Cycle:    427 Energy:      -644.615313  Gnorm:      0.010979  CPU:   69.954
  Cycle:    428 Energy:      -644.615411  Gnorm:      0.011468  CPU:   70.149
  Cycle:    429 Energy:      -644.615539  Gnorm:      0.015138  CPU:   70.306
  Cycle:    430 Energy:      -644.615645  Gnorm:      0.011708  CPU:   70.462
  Cycle:    431 Energy:      -644.615732  Gnorm:      0.009205  CPU:   70.620
  ** Hessian has required structure
  Cycle:    432 Energy:      -644.618533  Gnorm:      0.008606  CPU:   71.061
  ** Hessian has required structure
  Cycle:    433 Energy:      -644.623077  Gnorm:      0.007665  CPU:   71.347
  ** Hessian has required structure
  Cycle:    434 Energy:      -644.628572  Gnorm:      0.006588  CPU:   71.596
  ** Hessian has required structure
  Cycle:    435 Energy:      -644.636867  Gnorm:      0.006337  CPU:   71.881
  ** Hessian has required structure
  Cycle:    436 Energy:      -644.645551  Gnorm:      0.011685  CPU:   72.129
  ** Hessian has required structure
  Cycle:    437 Energy:      -644.653379  Gnorm:      0.025005  CPU:   72.373
  ** Hessian has required structure
  Cycle:    438 Energy:      -644.656781  Gnorm:      0.010669  CPU:   72.581
  ** Hessian has required structure
  Cycle:    439 Energy:      -644.657320  Gnorm:      0.005450  CPU:   72.772
  ** Hessian has required structure
  Cycle:    440 Energy:      -644.657451  Gnorm:      0.002425  CPU:   72.947
  ** Hessian has required structure
  Cycle:    441 Energy:      -644.657483  Gnorm:      0.001800  CPU:   73.123
  ** Hessian has required structure
  Cycle:    442 Energy:      -644.657502  Gnorm:      0.000113  CPU:   73.452
  ** Hessian has required structure


  **** Optimisation achieved ****


  Final enthalpy =    -644.65750200 eV      
  Final Gnorm    =       0.00001531

  Components of enthalpy : 

--------------------------------------------------------------------------------
  Interatomic potentials     =         216.45447002 eV    
  Monopole - monopole (real) =        -494.99230396 eV    
  Monopole - monopole (recip)=        -492.25105975 eV    
  Monopole - monopole (total)=        -987.24336372 eV    
  Pressure*volume            =         126.13139169 eV    
--------------------------------------------------------------------------------
  Total lattice enthalpy     =        -644.65750200 eV    
--------------------------------------------------------------------------------
  Total lattice enthalpy     =          -62199.5945 kJ/(mole unit cells)
--------------------------------------------------------------------------------

  Final fractional coordinates of atoms :

--------------------------------------------------------------------------------
   No.  Atomic        x           y          z          Radius
        Label       (Frac)      (Frac)     (Frac)       (Angs) 
--------------------------------------------------------------------------------
     1  Al    c     0.248792    0.000000    0.179612    0.000000
     2  Al    c     0.826864    0.065141    0.061051    0.000000
     3  Al    c     0.752008    0.371767    0.110573    0.000000
     4  Al    c     0.302489    0.721810    0.256799    0.000000
     5  Al    c     0.952248    0.861245    0.972436    0.000000
     6  Al    c     0.427873    0.517914    0.168184    0.000000
     7  Al    c     0.005945    0.583054    0.049619    0.000000
     8  Al    c     0.502729    0.211288    0.118660    0.000000
     9  Mg    c     0.689266    0.654745    0.417143    0.000000
    10  Mg    c     0.070971    0.346883    0.690145    0.000000
    11  Mg    c     0.183766    0.236172    0.539090    0.000000
    12  Mg    c     0.565471    0.928310    0.812091    0.000000
    13  O     c     0.269485    0.438688    0.162368    0.000000
    14  O     c     0.825282    0.542120    0.699631    0.000000
    15  O     c     0.016537    0.725004    0.519710    0.000000
    16  O     c     0.900006    0.341130    0.320867    0.000000
    17  O     c     0.841780    0.832321    0.228325    0.000000
    18  O     c     0.354731    0.241924    0.908370    0.000000
    19  O     c     0.602023    0.401342    0.756142    0.000000
    20  O     c     0.429455    0.040935    0.529603    0.000000
    21  O     c     0.119843    0.037929    0.995265    0.000000
    22  O     c     0.238201    0.858052    0.709523    0.000000
    23  O     c     0.524680    0.614610    0.834488    0.000000
    24  O     c     0.652714    0.181713    0.473092    0.000000
    25  O     c     0.730057    0.968444    0.394747    0.000000
    26  O     c     0.134894    0.545126    0.233969    0.000000
    27  O     c     0.985252    0.144367    0.066867    0.000000
    28  O     c     0.412957    0.750734    0.000910    0.000000
--------------------------------------------------------------------------------

  Final Cartesian lattice vectors (Angstroms) :

       11.964521   -2.527045   -4.739088
       -2.883330    7.063997    0.618084
       -0.297545    0.062814    2.734505


  Final cell parameters and derivatives :

--------------------------------------------------------------------------------
       a           13.114674 Angstrom     dE/de1(xx)     0.000064 eV/strain
       b            7.654781 Angstrom     dE/de2(yy)     0.000021 eV/strain
       c            2.751363 Angstrom     dE/de3(zz)     0.000044 eV/strain
       alpha       81.833332 Degrees      dE/de4(yz)    -0.001053 eV/strain
       beta       117.529361 Degrees      dE/de5(xz)     0.000540 eV/strain
       gamma      123.410338 Degrees      dE/de6(xy)     0.000419 eV/strain
--------------------------------------------------------------------------------

  Primitive cell volume =           202.086329 Angs**3

  Density of cell =      4.676193 g/cm**3

  Non-primitive cell volume =           202.086329 Angs**3


  Final internal derivatives :

--------------------------------------------------------------------------------
   No.  Atomic          a             b             c           Radius
        Label          (eV)          (eV)          (eV)        (eV/Angs)
--------------------------------------------------------------------------------
      1 Al    c       0.000000      0.000000      0.000000      0.000000
      2 Al    c      -0.000041      0.000021      0.000016      0.000000
      3 Al    c       0.000041     -0.000021      0.000004      0.000000
      4 Al    c      -0.000096     -0.000001      0.000024      0.000000
      5 Al    c      -0.000020      0.000010     -0.000006      0.000000
      6 Al    c       0.000009     -0.000026     -0.000021      0.000000
      7 Al    c       0.000083      0.000003     -0.000002      0.000000
      8 Al    c      -0.000057      0.000014      0.000000      0.000000
      9 Mg    c      -0.000067      0.000008     -0.000005      0.000000
     10 Mg    c       0.000027     -0.000014     -0.000008      0.000000
     11 Mg    c       0.000038     -0.000025      0.000018      0.000000
     12 Mg    c       0.000009      0.000019      0.000013      0.000000
     13 O     c       0.000009      0.000017     -0.000012      0.000000
     14 O     c      -0.000044      0.000029     -0.000002      0.000000
     15 O     c      -0.000005      0.000012      0.000004      0.000000
     16 O     c       0.000022      0.000002      0.000003      0.000000
     17 O     c       0.000041     -0.000013     -0.000007      0.000000
     18 O     c      -0.000005      0.000027      0.000027      0.000000
     19 O     c      -0.000097      0.000058      0.000022      0.000000
     20 O     c       0.000277     -0.000003     -0.000020      0.000000
     21 O     c       0.000104     -0.000091     -0.000000      0.000000
     22 O     c      -0.000017      0.000063     -0.000029      0.000000
     23 O     c       0.000045     -0.000039      0.000009      0.000000
     24 O     c       0.000115     -0.000070     -0.000027      0.000000
     25 O     c       0.000026      0.000012     -0.000009      0.000000
     26 O     c      -0.000087      0.000030      0.000022      0.000000
     27 O     c      -0.000037      0.000003      0.000006      0.000000
     28 O     c       0.000053     -0.000018     -0.000012      0.000000
--------------------------------------------------------------------------------
  Maximum abs         0.000277      0.000091      0.000029      0.000000
--------------------------------------------------------------------------------


  Time to end of optimisation =      73.6280 seconds


  Peak dynamic memory used =       2.03 MB 


  Timing analysis for GULP :

--------------------------------------------------------------------------------
  Task / Subroutine                                          Time (Seconds)
--------------------------------------------------------------------------------
  Calculation of reciprocal space energy and derivatives          1.1529
  Calculation of real space energy and derivatives               72.1342
  Calculation and manipulation of Hessian matrix                  0.2172
  Global summation overhead                                       0.0029
--------------------------------------------------------------------------------
  Total CPU time                                                 73.6280
--------------------------------------------------------------------------------


  Job Finished at 16:18.26 11th June       2024                               

