********************************************************************************
*                       GENERAL UTILITY LATTICE PROGRAM                        *
*                                 Julian Gale                                  *
*                       Curtin Institute for Computation                       *
*                    School of Molecular and Life Sciences                     *
*                    Curtin University, Western Australia                      *
********************************************************************************
* Version = 6.0.0 * Last modified =  12th July 2021                            *
********************************************************************************
*  optimise     - perform optimisation run                                     *
*  conp         - constant pressure calculation                                *
*  nosymmetry   - turn off symmetry after initial structure generation         *
*  conjugate    - use conjugate gradients minimiser                            *
********************************************************************************

  Job Started  at 16:18.44 11th June       2024                               

  Number of CPUs =     1


  Total number of configurations input =      1

********************************************************************************
*  Input for Configuration =   1                                               *
********************************************************************************

  Formula = Al8Mg4O16                                                   

  Number of irreducible atoms/shells =      28


  Total number atoms/shells =      28

  Dimensionality = 3               :  Bulk   



  Cartesian lattice vectors (Angstroms) :

        5.183826   -1.390794    0.915271
       -1.321935    5.205456   -0.894378
        2.134493   -2.209613    8.878750

  Cell parameters (Angstroms/Degrees):

  a =       5.4446    alpha = 115.8012
  b =       5.4446    beta  =  64.1991
  c =       9.3952    gamma = 120.1987

  Initial cell volume =         208.176407 Angs**3

  Temperature of configuration =   0.00     K 

  Pressure of configuration =       100.000 GPa 

  Fractional coordinates of asymmetric unit :

--------------------------------------------------------------------------------
   No.  Atomic       x           y          z         Charge      Occupancy
        Label      (Frac)      (Frac)     (Frac)        (e)         (Frac)  
--------------------------------------------------------------------------------
      1 Al    c    0.346587    0.681924    0.948866     3.00000    1.000000    
      2 Al    c    0.492375 *  0.492374 *  0.745328 *   3.00000    1.000000    
      3 Al    c    0.969275 *  0.020891 *  0.260225 *   3.00000    1.000000    
      4 Al    c    0.968369 *  0.019985 *  0.757111 *   3.00000    1.000000    
      5 Al    c    0.063511 *  0.434683 *  0.591856 *   3.00000    1.000000    
      6 Al    c    0.554578 *  0.925751 *  0.094972 *   3.00000    1.000000    
      7 Al    c    0.307336 *  0.642671 *  0.451979 *   3.00000    1.000000    
      8 Al    c    0.149656 *  0.837191 *  0.420842 *   3.00000    1.000000    
      9 Mg    c    0.066239 *  0.425923 *  0.089687 *   2.00000    1.000000    
     10 Mg    c    0.632236 *  0.353157 *  0.923914 *   2.00000    1.000000    
     11 Mg    c    0.826457 *  0.689584 *  0.592559 *   2.00000    1.000000    
     12 Mg    c    0.636101 *  0.357023 *  0.427030 *   2.00000    1.000000    
     13 O     c    0.305576 *  0.155461 *  0.585621 *  -2.00000    1.000000    
     14 O     c    0.563337 *  0.923021 *  0.586574 *  -2.00000    1.000000    
     15 O     c    0.796081 *  0.152400 *  0.212305 *  -2.00000    1.000000    
     16 O     c    0.343327 *  0.678228 *  0.215060 *  -2.00000    1.000000    
     17 O     c    0.839568 *  0.198156 *  0.462425 *  -2.00000    1.000000    
     18 O     c    0.152071 *  0.839605 *  0.917728 *  -2.00000    1.000000    
     19 O     c    0.300047 *  0.162782 *  0.829690 *  -2.00000    1.000000    
     20 O     c    0.836287 *  0.680779 *  0.822609 *  -2.00000    1.000000    
     21 O     c    0.826473 *  0.689206 *  0.332801 *  -2.00000    1.000000    
     22 O     c    0.308472 *  0.152968 *  0.325729 *  -2.00000    1.000000    
     23 O     c    0.496886 *  0.496886 *  0.248443 *  -2.00000    1.000000    
     24 O     c    0.791102 *  0.149691 *  0.959310 *  -2.00000    1.000000    
     25 O     c    0.311033 *  0.645934 *  0.711946 *  -2.00000    1.000000    
     26 O     c    0.836868 *  0.193179 *  0.709190 *  -2.00000    1.000000    
     27 O     c    0.833801 *  0.683690 *  0.088732 *  -2.00000    1.000000    
     28 O     c    0.299678 *  0.162803 *  0.095676 *  -2.00000    1.000000    
--------------------------------------------------------------------------------



********************************************************************************
*  General input information                                                   *
********************************************************************************

  Species output for all configurations : 

--------------------------------------------------------------------------------
  Species    Type    Atomic    Atomic    Charge       Radii (Angs)     Library
                     Number     Mass       (e)     Cova   Ionic  VDW   Symbol
--------------------------------------------------------------------------------
    Mg       Core       12      24.31   2.000000   1.100  0.000  1.640          
    Al       Core       13      26.98   3.000000   1.350  0.000  2.050          
    O        Core        8      16.00  -2.000000   0.730  0.000  1.360          
--------------------------------------------------------------------------------


  Lattice summation method               =    Ewald          (3-D)
                                         =    Parry          (2-D)
                                         =    Saunders et al (1-D)
  Accuracy factor for lattice sums       =   12.000


  Analytic derivatives to be used

  Time limit = Infinity

  Maximum range for interatomic potentials =    100000.000000 Angstroms

  General interatomic potentials :

--------------------------------------------------------------------------------
Atom  Types   Potential      Parameter       Value         Units   Cutoffs(Ang)
  1     2                                                            Min /  Max 
--------------------------------------------------------------------------------
O    c Mg   c Lennard       Lennard-Jones A  1.5000000    eV*Ang^m  0.000  6.000
                            Lennard-Jones B  0.0000000    eV*Ang^n  
                            Exponent m        12          None
                            Exponent n         6          None
--------------------------------------------------------------------------------
O    c Al   c Lennard       Lennard-Jones A  1.5000000    eV*Ang^m  0.000  6.000
                            Lennard-Jones B  0.0000000    eV*Ang^n  
                            Exponent m        12          None
                            Exponent n         6          None
--------------------------------------------------------------------------------
O    c O    c Lennard       Lennard-Jones A  1.5000000    eV*Ang^m  0.000  6.000
                            Lennard-Jones B  0.0000000    eV*Ang^n  
                            Exponent m        12          None
                            Exponent n         6          None
--------------------------------------------------------------------------------
Mg   c Mg   c Lennard       Lennard-Jones A  1.5000000    eV*Ang^m  0.000  6.000
                            Lennard-Jones B  0.0000000    eV*Ang^n  
                            Exponent m        12          None
                            Exponent n         6          None
--------------------------------------------------------------------------------
Mg   c Al   c Lennard       Lennard-Jones A  1.5000000    eV*Ang^m  0.000  6.000
                            Lennard-Jones B  0.0000000    eV*Ang^n  
                            Exponent m        12          None
                            Exponent n         6          None
--------------------------------------------------------------------------------
Al   c Al   c Lennard       Lennard-Jones A  1.5000000    eV*Ang^m  0.000  6.000
                            Lennard-Jones B  0.0000000    eV*Ang^n  
                            Exponent m        12          None
                            Exponent n         6          None
--------------------------------------------------------------------------------
O    c Mg   c Buckingham    Buckingham A     1428.5000    eV        0.000  7.000
                            Buckingham rho  0.29450000    Ang       
                            Buckingham C     0.0000000    eV*Ang^6  
--------------------------------------------------------------------------------
O    c Al   c Buckingham    Buckingham A     1114.9000    eV        0.000  7.000
                            Buckingham rho  0.31180000    Ang       
                            Buckingham C     0.0000000    eV*Ang^6  
--------------------------------------------------------------------------------
O    c O    c Buckingham    Buckingham A     2023.8000    eV        0.000  7.000
                            Buckingham rho  0.26740000    Ang       
                            Buckingham C     0.0000000    eV*Ang^6  
--------------------------------------------------------------------------------

********************************************************************************
*  Output for configuration   1                                                *
********************************************************************************


  Components of enthalpy : 

--------------------------------------------------------------------------------
  Interatomic potentials     =         177.33022396 eV    
  Monopole - monopole (real) =        -230.06281917 eV    
  Monopole - monopole (recip)=        -454.30841621 eV    
  Monopole - monopole (total)=        -684.37123539 eV    
  Pressure*volume            =         129.93249044 eV    
--------------------------------------------------------------------------------
  Total lattice enthalpy     =        -377.10852098 eV    
--------------------------------------------------------------------------------
  Total lattice enthalpy     =          -36385.2076 kJ/(mole unit cells)
--------------------------------------------------------------------------------


  Number of variables =       87

  Maximum number of calculations  =           850
  Maximum Hessian update interval =            10
  Maximum step size               =   1.000000000
  Maximum parameter tolerance     =   0.000010000
  Maximum function  tolerance     =   0.000010000
  Maximum gradient  tolerance     =   0.001000000
  Maximum gradient  component     =   0.010000000

  Cell parameters to be optimised using strains

  Conjugate gradient optimiser to be used

  Lower half triangular hessian to be used

  Minimiser to switch to RFO
  When gradient norm is less than     0.010000

  Start of bulk optimisation :

  Cycle:      0 Energy:      -377.108521  Gnorm:     15.054846  CPU:    0.093
  Cycle:      1 Energy:      -500.195565  Gnorm:      6.249893  CPU:    0.283
  Cycle:      2 Energy:      -528.989366  Gnorm:      5.247958  CPU:    0.432
  Cycle:      3 Energy:      -556.518339  Gnorm:      4.559847  CPU:    0.625
  Cycle:      4 Energy:      -575.939630  Gnorm:      3.164585  CPU:    0.814
  Cycle:      5 Energy:      -589.183655  Gnorm:      4.033904  CPU:    1.004
  Cycle:      6 Energy:      -599.601919  Gnorm:      3.413662  CPU:    1.161
  Cycle:      7 Energy:      -608.271015  Gnorm:      2.005562  CPU:    1.358
  Cycle:      8 Energy:      -613.126335  Gnorm:      2.009288  CPU:    1.555
  Cycle:      9 Energy:      -615.963200  Gnorm:      1.719385  CPU:    1.716
  Cycle:     10 Energy:      -617.579416  Gnorm:      1.257734  CPU:    1.877
  Cycle:     11 Energy:      -619.347293  Gnorm:      1.240054  CPU:    2.077
  Cycle:     12 Energy:      -621.626273  Gnorm:      1.328898  CPU:    2.278
  Cycle:     13 Energy:      -624.046963  Gnorm:      1.237001  CPU:    2.480
  Cycle:     14 Energy:      -625.782646  Gnorm:      1.339609  CPU:    2.646
  Cycle:     15 Energy:      -627.376498  Gnorm:      1.399718  CPU:    2.812
  Cycle:     16 Energy:      -629.350329  Gnorm:      1.172686  CPU:    3.018
  Cycle:     17 Energy:      -630.723535  Gnorm:      1.066977  CPU:    3.224
  Cycle:     18 Energy:      -631.761723  Gnorm:      0.886225  CPU:    3.431
  Cycle:     19 Energy:      -632.426632  Gnorm:      0.808934  CPU:    3.636
  Cycle:     20 Energy:      -632.730774  Gnorm:      0.630731  CPU:    3.802
  Cycle:     21 Energy:      -633.331578  Gnorm:      0.691813  CPU:    4.006
  Cycle:     22 Energy:      -633.836194  Gnorm:      0.647035  CPU:    4.171
  Cycle:     23 Energy:      -634.239324  Gnorm:      0.725929  CPU:    4.335
  Cycle:     24 Energy:      -634.702266  Gnorm:      0.628006  CPU:    4.535
  Cycle:     25 Energy:      -635.255214  Gnorm:      0.764510  CPU:    4.735
  Cycle:     26 Energy:      -635.943784  Gnorm:      1.029256  CPU:    4.892
  Cycle:     27 Energy:      -636.983743  Gnorm:      1.041278  CPU:    5.085
  Cycle:     28 Energy:      -637.979589  Gnorm:      0.857891  CPU:    5.235
  Cycle:     29 Energy:      -638.916150  Gnorm:      0.748999  CPU:    5.427
  Cycle:     30 Energy:      -639.343241  Gnorm:      0.643004  CPU:    5.575
  Cycle:     31 Energy:      -639.758275  Gnorm:      0.668806  CPU:    5.767
  Cycle:     32 Energy:      -640.305846  Gnorm:      0.589578  CPU:    5.956
  Cycle:     33 Energy:      -640.645429  Gnorm:      0.600290  CPU:    6.104
  Cycle:     34 Energy:      -640.905663  Gnorm:      0.429899  CPU:    6.265
  Cycle:     35 Energy:      -641.252819  Gnorm:      0.437597  CPU:    6.454
  Cycle:     36 Energy:      -641.475460  Gnorm:      0.487256  CPU:    6.603
  Cycle:     37 Energy:      -641.744952  Gnorm:      0.490615  CPU:    6.796
  Cycle:     38 Energy:      -641.970199  Gnorm:      0.404222  CPU:    6.945
  Cycle:     39 Energy:      -642.244741  Gnorm:      0.477242  CPU:    7.138
  Cycle:     40 Energy:      -642.364308  Gnorm:      0.338952  CPU:    7.327
  Cycle:     41 Energy:      -642.487766  Gnorm:      0.324715  CPU:    7.516
  Cycle:     42 Energy:      -642.662027  Gnorm:      0.322238  CPU:    7.705
  Cycle:     43 Energy:      -642.759402  Gnorm:      0.312557  CPU:    7.854
  Cycle:     44 Energy:      -642.876835  Gnorm:      0.371714  CPU:    8.047
  Cycle:     45 Energy:      -643.041510  Gnorm:      0.343051  CPU:    8.236
  Cycle:     46 Energy:      -643.308413  Gnorm:      0.484008  CPU:    8.426
  Cycle:     47 Energy:      -643.565354  Gnorm:      0.572931  CPU:    8.575
  Cycle:     48 Energy:      -643.811083  Gnorm:      0.433395  CPU:    8.734
  Cycle:     49 Energy:      -644.122651  Gnorm:      0.516032  CPU:    8.925
  Cycle:     50 Energy:      -644.317181  Gnorm:      0.415318  CPU:    9.076
  Cycle:     51 Energy:      -644.447423  Gnorm:      0.346470  CPU:    9.271
  Cycle:     52 Energy:      -644.679528  Gnorm:      0.328140  CPU:    9.462
  Cycle:     53 Energy:      -644.810795  Gnorm:      0.312268  CPU:    9.616
  Cycle:     54 Energy:      -644.892847  Gnorm:      0.276399  CPU:    9.773
  Cycle:     55 Energy:      -644.982475  Gnorm:      0.276551  CPU:    9.966
  Cycle:     56 Energy:      -645.110317  Gnorm:      0.270507  CPU:   10.159
  Cycle:     57 Energy:      -645.256188  Gnorm:      0.297852  CPU:   10.354
  Cycle:     58 Energy:      -645.346890  Gnorm:      0.346616  CPU:   10.512
  Cycle:     59 Energy:      -645.490468  Gnorm:      0.352770  CPU:   10.709
  Cycle:     60 Energy:      -645.585010  Gnorm:      0.277892  CPU:   10.870
  Cycle:     61 Energy:      -645.645533  Gnorm:      0.240390  CPU:   11.068
  Cycle:     62 Energy:      -645.718732  Gnorm:      0.212546  CPU:   11.266
  Cycle:     63 Energy:      -645.781945  Gnorm:      0.215403  CPU:   11.427
  Cycle:     64 Energy:      -645.826716  Gnorm:      0.205425  CPU:   11.588
  Cycle:     65 Energy:      -645.869738  Gnorm:      0.193928  CPU:   11.788
  Cycle:     66 Energy:      -645.936277  Gnorm:      0.205211  CPU:   11.989
  Cycle:     67 Energy:      -645.993690  Gnorm:      0.199743  CPU:   12.153
  Cycle:     68 Energy:      -646.026706  Gnorm:      0.198096  CPU:   12.318
  Cycle:     69 Energy:      -646.069875  Gnorm:      0.177785  CPU:   12.522
  Cycle:     70 Energy:      -646.103249  Gnorm:      0.165397  CPU:   12.726
  Cycle:     71 Energy:      -646.130665  Gnorm:      0.173828  CPU:   12.930
  Cycle:     72 Energy:      -646.161426  Gnorm:      0.156680  CPU:   13.134
  Cycle:     73 Energy:      -646.200271  Gnorm:      0.135390  CPU:   13.339
  Cycle:     74 Energy:      -646.220283  Gnorm:      0.139058  CPU:   13.505
  Cycle:     75 Energy:      -646.241391  Gnorm:      0.145784  CPU:   13.710
  Cycle:     76 Energy:      -646.269206  Gnorm:      0.145356  CPU:   13.916
  Cycle:     77 Energy:      -646.301019  Gnorm:      0.137110  CPU:   14.124
  Cycle:     78 Energy:      -646.333068  Gnorm:      0.136290  CPU:   14.332
  Cycle:     79 Energy:      -646.396131  Gnorm:      0.306268  CPU:   14.540
  Cycle:     80 Energy:      -646.431077  Gnorm:      0.114783  CPU:   14.749
  Cycle:     81 Energy:      -646.446419  Gnorm:      0.102375  CPU:   14.957
  Cycle:     82 Energy:      -646.461932  Gnorm:      0.122020  CPU:   15.166
  Cycle:     83 Energy:      -646.475837  Gnorm:      0.113707  CPU:   15.335
  Cycle:     84 Energy:      -646.488611  Gnorm:      0.092128  CPU:   15.505
  Cycle:     85 Energy:      -646.501173  Gnorm:      0.085210  CPU:   15.715
  Cycle:     86 Energy:      -646.512637  Gnorm:      0.105807  CPU:   15.885
  Cycle:     87 Energy:      -646.523985  Gnorm:      0.108335  CPU:   16.056
  Cycle:     88 Energy:      -646.535995  Gnorm:      0.079912  CPU:   16.267
  Cycle:     89 Energy:      -646.544498  Gnorm:      0.098381  CPU:   16.478
  Cycle:     90 Energy:      -646.549909  Gnorm:      0.077194  CPU:   16.649
  Cycle:     91 Energy:      -646.557820  Gnorm:      0.081760  CPU:   16.861
  Cycle:     92 Energy:      -646.567696  Gnorm:      0.081591  CPU:   17.072
  Cycle:     93 Energy:      -646.576029  Gnorm:      0.082842  CPU:   17.244
  Cycle:     94 Energy:      -646.581755  Gnorm:      0.072063  CPU:   17.416
  Cycle:     95 Energy:      -646.588975  Gnorm:      0.066573  CPU:   17.628
  Cycle:     96 Energy:      -646.598928  Gnorm:      0.081570  CPU:   17.841
  Cycle:     97 Energy:      -646.609174  Gnorm:      0.071001  CPU:   18.013
  Cycle:     98 Energy:      -646.614020  Gnorm:      0.085831  CPU:   18.186
  Cycle:     99 Energy:      -646.628087  Gnorm:      0.136988  CPU:   18.399
  Cycle:    100 Energy:      -646.638478  Gnorm:      0.075782  CPU:   18.572
  Cycle:    101 Energy:      -646.642650  Gnorm:      0.061133  CPU:   18.745
  Cycle:    102 Energy:      -646.647240  Gnorm:      0.065877  CPU:   18.918
  Cycle:    103 Energy:      -646.654050  Gnorm:      0.059582  CPU:   19.091
  Cycle:    104 Energy:      -646.659133  Gnorm:      0.048840  CPU:   19.264
  Cycle:    105 Energy:      -646.663635  Gnorm:      0.065736  CPU:   19.437
  Cycle:    106 Energy:      -646.667377  Gnorm:      0.060439  CPU:   19.611
  Cycle:    107 Energy:      -646.672573  Gnorm:      0.062518  CPU:   19.784
  Cycle:    108 Energy:      -646.676927  Gnorm:      0.054249  CPU:   19.958
  Cycle:    109 Energy:      -646.680064  Gnorm:      0.064793  CPU:   20.127
  Cycle:    110 Energy:      -646.682351  Gnorm:      0.050181  CPU:   20.297
  Cycle:    111 Energy:      -646.685547  Gnorm:      0.052241  CPU:   20.465
  Cycle:    112 Energy:      -646.689110  Gnorm:      0.044833  CPU:   20.634
  Cycle:    113 Energy:      -646.693453  Gnorm:      0.049640  CPU:   20.844
  Cycle:    114 Energy:      -646.696096  Gnorm:      0.044000  CPU:   21.014
  Cycle:    115 Energy:      -646.698573  Gnorm:      0.058082  CPU:   21.183
  Cycle:    116 Energy:      -646.702851  Gnorm:      0.061931  CPU:   21.353
  Cycle:    117 Energy:      -646.707135  Gnorm:      0.052053  CPU:   21.523
  Cycle:    118 Energy:      -646.709747  Gnorm:      0.052575  CPU:   21.693
  Cycle:    119 Energy:      -646.713924  Gnorm:      0.079816  CPU:   21.904
  Cycle:    120 Energy:      -646.717395  Gnorm:      0.047949  CPU:   22.074
  Cycle:    121 Energy:      -646.719749  Gnorm:      0.050001  CPU:   22.245
  Cycle:    122 Energy:      -646.722457  Gnorm:      0.048465  CPU:   22.415
  Cycle:    123 Energy:      -646.725881  Gnorm:      0.046458  CPU:   22.586
  Cycle:    124 Energy:      -646.727602  Gnorm:      0.040457  CPU:   22.756
  Cycle:    125 Energy:      -646.729573  Gnorm:      0.040752  CPU:   22.926
  Cycle:    126 Energy:      -646.732033  Gnorm:      0.039793  CPU:   23.138
  Cycle:    127 Energy:      -646.735185  Gnorm:      0.043201  CPU:   23.309
  Cycle:    128 Energy:      -646.737730  Gnorm:      0.034834  CPU:   23.480
  Cycle:    129 Energy:      -646.739906  Gnorm:      0.071437  CPU:   23.651
  Cycle:    130 Energy:      -646.741770  Gnorm:      0.034649  CPU:   23.822
  Cycle:    131 Energy:      -646.744042  Gnorm:      0.039413  CPU:   23.994
  Cycle:    132 Energy:      -646.746632  Gnorm:      0.038502  CPU:   24.165
  Cycle:    133 Energy:      -646.748386  Gnorm:      0.039837  CPU:   24.337
  Cycle:    134 Energy:      -646.749821  Gnorm:      0.035425  CPU:   24.509
  Cycle:    135 Energy:      -646.751463  Gnorm:      0.035643  CPU:   24.680
  Cycle:    136 Energy:      -646.754061  Gnorm:      0.044575  CPU:   24.894
  Cycle:    137 Energy:      -646.755900  Gnorm:      0.045647  CPU:   25.066
  Cycle:    138 Energy:      -646.757812  Gnorm:      0.036504  CPU:   25.238
  Cycle:    139 Energy:      -646.760330  Gnorm:      0.059698  CPU:   25.452
  Cycle:    140 Energy:      -646.762378  Gnorm:      0.039792  CPU:   25.625
  Cycle:    141 Energy:      -646.763827  Gnorm:      0.037426  CPU:   25.840
  Cycle:    142 Energy:      -646.765377  Gnorm:      0.039268  CPU:   26.012
  Cycle:    143 Energy:      -646.767887  Gnorm:      0.033990  CPU:   26.186
  Cycle:    144 Energy:      -646.769239  Gnorm:      0.034097  CPU:   26.359
  Cycle:    145 Energy:      -646.770353  Gnorm:      0.034493  CPU:   26.532
  Cycle:    146 Energy:      -646.772059  Gnorm:      0.032970  CPU:   26.705
  Cycle:    147 Energy:      -646.774403  Gnorm:      0.037857  CPU:   26.878
  Cycle:    148 Energy:      -646.776470  Gnorm:      0.032044  CPU:   27.052
  Cycle:    149 Energy:      -646.779169  Gnorm:      0.069472  CPU:   27.267
  Cycle:    150 Energy:      -646.781307  Gnorm:      0.038317  CPU:   27.440
  Cycle:    151 Energy:      -646.782712  Gnorm:      0.035934  CPU:   27.613
  Cycle:    152 Energy:      -646.784705  Gnorm:      0.038383  CPU:   27.787
  Cycle:    153 Energy:      -646.786042  Gnorm:      0.037279  CPU:   27.959
  Cycle:    154 Energy:      -646.787480  Gnorm:      0.029548  CPU:   28.133
  Cycle:    155 Energy:      -646.788796  Gnorm:      0.030151  CPU:   28.348
  Cycle:    156 Energy:      -646.790667  Gnorm:      0.036296  CPU:   28.521
  Cycle:    157 Energy:      -646.792628  Gnorm:      0.037692  CPU:   28.695
  Cycle:    158 Energy:      -646.794162  Gnorm:      0.037137  CPU:   28.868
  Cycle:    159 Energy:      -646.795461  Gnorm:      0.039150  CPU:   29.042
  Cycle:    160 Energy:      -646.796437  Gnorm:      0.034761  CPU:   29.216
  Cycle:    161 Energy:      -646.797974  Gnorm:      0.036751  CPU:   29.389
  Cycle:    162 Energy:      -646.799500  Gnorm:      0.037696  CPU:   29.563
  Cycle:    163 Energy:      -646.801203  Gnorm:      0.034369  CPU:   29.737
  Cycle:    164 Energy:      -646.802281  Gnorm:      0.032555  CPU:   29.911
  Cycle:    165 Energy:      -646.803482  Gnorm:      0.030523  CPU:   30.085
  Cycle:    166 Energy:      -646.805487  Gnorm:      0.034711  CPU:   30.302
  Cycle:    167 Energy:      -646.807931  Gnorm:      0.037259  CPU:   30.477
  Cycle:    168 Energy:      -646.809715  Gnorm:      0.040019  CPU:   30.652
  Cycle:    169 Energy:      -646.811885  Gnorm:      0.069593  CPU:   30.827
  Cycle:    170 Energy:      -646.813910  Gnorm:      0.040205  CPU:   31.003
  Cycle:    171 Energy:      -646.815725  Gnorm:      0.037746  CPU:   31.178
  Cycle:    172 Energy:      -646.817912  Gnorm:      0.039271  CPU:   31.354
  Cycle:    173 Energy:      -646.819429  Gnorm:      0.039408  CPU:   31.529
  Cycle:    174 Energy:      -646.820921  Gnorm:      0.030304  CPU:   31.705
  Cycle:    175 Energy:      -646.822373  Gnorm:      0.032955  CPU:   31.923
  Cycle:    176 Energy:      -646.824402  Gnorm:      0.041137  CPU:   32.141
  Cycle:    177 Energy:      -646.826217  Gnorm:      0.043278  CPU:   32.318
  Cycle:    178 Energy:      -646.827948  Gnorm:      0.041075  CPU:   32.494
  Cycle:    179 Energy:      -646.829537  Gnorm:      0.036647  CPU:   32.670
  Cycle:    180 Energy:      -646.830812  Gnorm:      0.038823  CPU:   32.847
  Cycle:    181 Energy:      -646.832389  Gnorm:      0.040859  CPU:   33.024
  Cycle:    182 Energy:      -646.834105  Gnorm:      0.041120  CPU:   33.200
  Cycle:    183 Energy:      -646.836276  Gnorm:      0.035718  CPU:   33.377
  Cycle:    184 Energy:      -646.837765  Gnorm:      0.035657  CPU:   33.554
  Cycle:    185 Energy:      -646.839110  Gnorm:      0.039096  CPU:   33.731
  Cycle:    186 Energy:      -646.841351  Gnorm:      0.042716  CPU:   33.908
  Cycle:    187 Energy:      -646.844258  Gnorm:      0.047227  CPU:   34.128
  Cycle:    188 Energy:      -646.846904  Gnorm:      0.053170  CPU:   34.306
  Cycle:    189 Energy:      -646.849250  Gnorm:      0.058889  CPU:   34.483
  Cycle:    190 Energy:      -646.851524  Gnorm:      0.052988  CPU:   34.661
  Cycle:    191 Energy:      -646.854220  Gnorm:      0.048726  CPU:   34.839
  Cycle:    192 Energy:      -646.857414  Gnorm:      0.044867  CPU:   35.017
  Cycle:    193 Energy:      -646.859963  Gnorm:      0.043328  CPU:   35.195
  Cycle:    194 Energy:      -646.861612  Gnorm:      0.040201  CPU:   35.373
  Cycle:    195 Energy:      -646.863591  Gnorm:      0.041059  CPU:   35.552
  Cycle:    196 Energy:      -646.866986  Gnorm:      0.047997  CPU:   35.774
  Cycle:    197 Energy:      -646.869255  Gnorm:      0.054343  CPU:   35.953
  Cycle:    198 Energy:      -646.871976  Gnorm:      0.044401  CPU:   36.132
  Cycle:    199 Energy:      -646.874263  Gnorm:      0.055102  CPU:   36.360
  Cycle:    200 Energy:      -646.876422  Gnorm:      0.043984  CPU:   36.539
  Cycle:    201 Energy:      -646.879126  Gnorm:      0.054483  CPU:   36.719
  Cycle:    202 Energy:      -646.881473  Gnorm:      0.050293  CPU:   36.899
  Cycle:    203 Energy:      -646.885007  Gnorm:      0.048124  CPU:   37.079
  Cycle:    204 Energy:      -646.887422  Gnorm:      0.046323  CPU:   37.259
  Cycle:    205 Energy:      -646.889641  Gnorm:      0.050645  CPU:   37.439
  Cycle:    206 Energy:      -646.892878  Gnorm:      0.054331  CPU:   37.623
  Cycle:    207 Energy:      -646.897373  Gnorm:      0.062603  CPU:   37.851
  Cycle:    208 Energy:      -646.901486  Gnorm:      0.068651  CPU:   38.035
  Cycle:    209 Energy:      -646.906184  Gnorm:      0.070129  CPU:   38.264
  Cycle:    210 Energy:      -646.910250  Gnorm:      0.073457  CPU:   38.449
  Cycle:    211 Energy:      -646.914801  Gnorm:      0.062633  CPU:   38.635
  Cycle:    212 Energy:      -646.920435  Gnorm:      0.069710  CPU:   38.864
  Cycle:    213 Energy:      -646.926126  Gnorm:      0.056986  CPU:   39.051
  Cycle:    214 Energy:      -646.929514  Gnorm:      0.059369  CPU:   39.233
  Cycle:    215 Energy:      -646.932996  Gnorm:      0.054154  CPU:   39.460
  Cycle:    216 Energy:      -646.938019  Gnorm:      0.058906  CPU:   39.643
  Cycle:    217 Energy:      -646.943195  Gnorm:      0.079140  CPU:   39.826
  Cycle:    218 Energy:      -646.947295  Gnorm:      0.057832  CPU:   40.011
  Cycle:    219 Energy:      -646.955269  Gnorm:      0.114990  CPU:   40.240
  Cycle:    220 Energy:      -646.961327  Gnorm:      0.058960  CPU:   40.425
  Cycle:    221 Energy:      -646.964403  Gnorm:      0.066987  CPU:   40.609
  Cycle:    222 Energy:      -646.970906  Gnorm:      0.063810  CPU:   40.794
  Cycle:    223 Energy:      -646.976749  Gnorm:      0.069359  CPU:   40.979
  Cycle:    224 Energy:      -646.981397  Gnorm:      0.062267  CPU:   41.164
  Cycle:    225 Energy:      -646.986607  Gnorm:      0.080071  CPU:   41.394
  Cycle:    226 Energy:      -646.995264  Gnorm:      0.083396  CPU:   41.625
  Cycle:    227 Energy:      -647.004709  Gnorm:      0.094141  CPU:   41.811
  Cycle:    228 Energy:      -647.013421  Gnorm:      0.105254  CPU:   41.998
  Cycle:    229 Energy:      -647.023544  Gnorm:      0.102296  CPU:   42.231
  Cycle:    230 Energy:      -647.032448  Gnorm:      0.093028  CPU:   42.419
  Cycle:    231 Energy:      -647.041213  Gnorm:      0.097967  CPU:   42.608
  Cycle:    232 Energy:      -647.049540  Gnorm:      0.089552  CPU:   42.797
  Cycle:    233 Energy:      -647.061122  Gnorm:      0.093464  CPU:   42.985
  Cycle:    234 Energy:      -647.069135  Gnorm:      0.079859  CPU:   43.174
  Cycle:    235 Energy:      -647.076131  Gnorm:      0.082775  CPU:   43.364
  Cycle:    236 Energy:      -647.084214  Gnorm:      0.086886  CPU:   43.600
  Cycle:    237 Energy:      -647.099763  Gnorm:      0.096506  CPU:   43.791
  Cycle:    238 Energy:      -647.106953  Gnorm:      0.094471  CPU:   43.982
  Cycle:    239 Energy:      -647.119927  Gnorm:      0.159332  CPU:   44.220
  Cycle:    240 Energy:      -647.131637  Gnorm:      0.094389  CPU:   44.412
  Cycle:    241 Energy:      -647.140301  Gnorm:      0.106382  CPU:   44.651
  Cycle:    242 Energy:      -647.154537  Gnorm:      0.095478  CPU:   44.894
  Cycle:    243 Energy:      -647.166962  Gnorm:      0.092360  CPU:   45.140
  Cycle:    244 Energy:      -647.175385  Gnorm:      0.094347  CPU:   45.338
  Cycle:    245 Energy:      -647.187300  Gnorm:      0.110594  CPU:   45.583
  Cycle:    246 Energy:      -647.205302  Gnorm:      0.118898  CPU:   45.824
  Cycle:    247 Energy:      -647.223270  Gnorm:      0.123721  CPU:   46.018
  Cycle:    248 Energy:      -647.240006  Gnorm:      0.140889  CPU:   46.216
  Cycle:    249 Energy:      -647.257367  Gnorm:      0.158186  CPU:   46.414
  Cycle:    250 Energy:      -647.273048  Gnorm:      0.137938  CPU:   46.611
  Cycle:    251 Energy:      -647.292314  Gnorm:      0.140570  CPU:   46.856
  Cycle:    252 Energy:      -647.313229  Gnorm:      0.133626  CPU:   47.102
  Cycle:    253 Energy:      -647.337933  Gnorm:      0.131169  CPU:   47.347
  Cycle:    254 Energy:      -647.356221  Gnorm:      0.121300  CPU:   47.545
  Cycle:    255 Energy:      -647.369526  Gnorm:      0.113436  CPU:   47.742
  Cycle:    256 Energy:      -647.389100  Gnorm:      0.129951  CPU:   47.989
  Cycle:    257 Energy:      -647.416513  Gnorm:      0.140703  CPU:   48.241
  Cycle:    258 Energy:      -647.441227  Gnorm:      0.143450  CPU:   48.442
  Cycle:    259 Energy:      -647.476454  Gnorm:      0.279299  CPU:   48.693
  Cycle:    260 Energy:      -647.505787  Gnorm:      0.152112  CPU:   48.896
  Cycle:    261 Energy:      -647.533376  Gnorm:      0.144814  CPU:   49.102
  Cycle:    262 Energy:      -647.563633  Gnorm:      0.137413  CPU:   49.355
  Cycle:    263 Energy:      -647.588509  Gnorm:      0.120565  CPU:   49.611
  Cycle:    264 Energy:      -647.605860  Gnorm:      0.129131  CPU:   49.868
  Cycle:    265 Energy:      -647.627796  Gnorm:      0.148572  CPU:   50.125
  Cycle:    266 Energy:      -647.653294  Gnorm:      0.154351  CPU:   50.330
  Cycle:    267 Energy:      -647.679193  Gnorm:      0.150821  CPU:   50.587
  Cycle:    268 Energy:      -647.702753  Gnorm:      0.133764  CPU:   50.843
  Cycle:    269 Energy:      -647.716817  Gnorm:      0.156609  CPU:   51.050
  Cycle:    270 Energy:      -647.729415  Gnorm:      0.124761  CPU:   51.257
  Cycle:    271 Energy:      -647.749851  Gnorm:      0.137296  CPU:   51.519
  Cycle:    272 Energy:      -647.769625  Gnorm:      0.130112  CPU:   51.731
  Cycle:    273 Energy:      -647.786980  Gnorm:      0.121691  CPU:   51.943
  Cycle:    274 Energy:      -647.800915  Gnorm:      0.099912  CPU:   52.205
  Cycle:    275 Energy:      -647.811526  Gnorm:      0.092987  CPU:   52.468
  Cycle:    276 Energy:      -647.824324  Gnorm:      0.096984  CPU:   52.731
  Cycle:    277 Energy:      -647.837525  Gnorm:      0.092821  CPU:   52.994
  Cycle:    278 Energy:      -647.847299  Gnorm:      0.091206  CPU:   53.206
  Cycle:    279 Energy:      -647.855064  Gnorm:      0.125171  CPU:   53.419
  Cycle:    280 Energy:      -647.861943  Gnorm:      0.082941  CPU:   53.632
  Cycle:    281 Energy:      -647.869589  Gnorm:      0.079021  CPU:   53.845
  Cycle:    282 Energy:      -647.878148  Gnorm:      0.074517  CPU:   54.058
  Cycle:    283 Energy:      -647.884934  Gnorm:      0.066429  CPU:   54.271
  Cycle:    284 Energy:      -647.890118  Gnorm:      0.067313  CPU:   54.534
  Cycle:    285 Energy:      -647.895891  Gnorm:      0.074119  CPU:   54.747
  Cycle:    286 Energy:      -647.901904  Gnorm:      0.073340  CPU:   54.961
  Cycle:    287 Energy:      -647.907777  Gnorm:      0.068027  CPU:   55.174
  Cycle:    288 Energy:      -647.912738  Gnorm:      0.053743  CPU:   55.439
  Cycle:    289 Energy:      -647.915780  Gnorm:      0.082967  CPU:   55.652
  Cycle:    290 Energy:      -647.918471  Gnorm:      0.049434  CPU:   55.865
  Cycle:    291 Energy:      -647.922259  Gnorm:      0.056280  CPU:   56.078
  Cycle:    292 Energy:      -647.925874  Gnorm:      0.054775  CPU:   56.291
  Cycle:    293 Energy:      -647.928923  Gnorm:      0.051327  CPU:   56.504
  Cycle:    294 Energy:      -647.931479  Gnorm:      0.042754  CPU:   56.717
  Cycle:    295 Energy:      -647.933552  Gnorm:      0.041256  CPU:   56.930
  Cycle:    296 Energy:      -647.935801  Gnorm:      0.043214  CPU:   57.143
  Cycle:    297 Energy:      -647.938060  Gnorm:      0.046583  CPU:   57.356
  Cycle:    298 Energy:      -647.939762  Gnorm:      0.042157  CPU:   57.569
  Cycle:    299 Energy:      -647.941624  Gnorm:      0.044993  CPU:   57.782
  Cycle:    300 Energy:      -647.943238  Gnorm:      0.039067  CPU:   57.995
  Cycle:    301 Energy:      -647.944572  Gnorm:      0.039245  CPU:   58.208
  Cycle:    302 Energy:      -647.946140  Gnorm:      0.036333  CPU:   58.421
  Cycle:    303 Energy:      -647.947579  Gnorm:      0.031782  CPU:   58.634
  Cycle:    304 Energy:      -647.948749  Gnorm:      0.031411  CPU:   58.847
  Cycle:    305 Energy:      -647.950015  Gnorm:      0.035732  CPU:   59.060
  Cycle:    306 Energy:      -647.951360  Gnorm:      0.034367  CPU:   59.273
  Cycle:    307 Energy:      -647.952967  Gnorm:      0.034092  CPU:   59.536
  Cycle:    308 Energy:      -647.954474  Gnorm:      0.026443  CPU:   59.749
  Cycle:    309 Energy:      -647.961243  Gnorm:      0.087467  CPU:   60.063
  Cycle:    310 Energy:      -647.965073  Gnorm:      0.031393  CPU:   60.276
  Cycle:    311 Energy:      -647.965792  Gnorm:      0.023441  CPU:   60.488
  Cycle:    312 Energy:      -647.966402  Gnorm:      0.026413  CPU:   60.701
  Cycle:    313 Energy:      -647.967384  Gnorm:      0.024114  CPU:   60.923
  Cycle:    314 Energy:      -647.967970  Gnorm:      0.023867  CPU:   61.136
  Cycle:    315 Energy:      -647.968411  Gnorm:      0.023207  CPU:   61.349
  Cycle:    316 Energy:      -647.969228  Gnorm:      0.022397  CPU:   61.613
  Cycle:    317 Energy:      -647.969868  Gnorm:      0.024042  CPU:   61.826
  Cycle:    318 Energy:      -647.970821  Gnorm:      0.022405  CPU:   62.089
  Cycle:    319 Energy:      -647.971330  Gnorm:      0.025718  CPU:   62.302
  Cycle:    320 Energy:      -647.971664  Gnorm:      0.020751  CPU:   62.514
  Cycle:    321 Energy:      -647.972363  Gnorm:      0.025795  CPU:   62.727
  Cycle:    322 Energy:      -647.973059  Gnorm:      0.020222  CPU:   62.940
  Cycle:    323 Energy:      -647.973638  Gnorm:      0.021990  CPU:   63.153
  Cycle:    324 Energy:      -647.974194  Gnorm:      0.020163  CPU:   63.365
  Cycle:    325 Energy:      -647.974682  Gnorm:      0.022388  CPU:   63.578
  Cycle:    326 Energy:      -647.975259  Gnorm:      0.024424  CPU:   63.791
  Cycle:    327 Energy:      -647.976038  Gnorm:      0.020191  CPU:   64.051
  Cycle:    328 Energy:      -647.976574  Gnorm:      0.028081  CPU:   64.259
  Cycle:    329 Energy:      -647.977623  Gnorm:      0.043747  CPU:   64.468
  Cycle:    330 Energy:      -647.978519  Gnorm:      0.026357  CPU:   64.677
  Cycle:    331 Energy:      -647.979001  Gnorm:      0.018048  CPU:   64.890
  Cycle:    332 Energy:      -647.979542  Gnorm:      0.023475  CPU:   65.102
  Cycle:    333 Energy:      -647.980145  Gnorm:      0.021336  CPU:   65.311
  Cycle:    334 Energy:      -647.980579  Gnorm:      0.019883  CPU:   65.523
  Cycle:    335 Energy:      -647.981030  Gnorm:      0.019051  CPU:   65.736
  Cycle:    336 Energy:      -647.981502  Gnorm:      0.018902  CPU:   65.948
  Cycle:    337 Energy:      -647.982019  Gnorm:      0.022990  CPU:   66.211
  Cycle:    338 Energy:      -647.982529  Gnorm:      0.022717  CPU:   66.423
  Cycle:    339 Energy:      -647.982951  Gnorm:      0.020797  CPU:   66.635
  Cycle:    340 Energy:      -647.983242  Gnorm:      0.018569  CPU:   66.847
  Cycle:    341 Energy:      -647.983609  Gnorm:      0.020285  CPU:   67.059
  Cycle:    342 Energy:      -647.984077  Gnorm:      0.019562  CPU:   67.271
  Cycle:    343 Energy:      -647.984500  Gnorm:      0.017251  CPU:   67.483
  Cycle:    344 Energy:      -647.984955  Gnorm:      0.017955  CPU:   67.746
  Cycle:    345 Energy:      -647.985329  Gnorm:      0.021198  CPU:   67.958
  Cycle:    346 Energy:      -647.985881  Gnorm:      0.021201  CPU:   68.220
  Cycle:    347 Energy:      -647.986405  Gnorm:      0.019771  CPU:   68.432
  Cycle:    348 Energy:      -647.987006  Gnorm:      0.024680  CPU:   68.695
  Cycle:    349 Energy:      -647.987578  Gnorm:      0.031802  CPU:   68.907
  Cycle:    350 Energy:      -647.988060  Gnorm:      0.022860  CPU:   69.119
  Cycle:    351 Energy:      -647.988631  Gnorm:      0.019830  CPU:   69.381
  Cycle:    352 Energy:      -647.989120  Gnorm:      0.019302  CPU:   69.593
  Cycle:    353 Energy:      -647.989554  Gnorm:      0.019872  CPU:   69.805
  Cycle:    354 Energy:      -647.989940  Gnorm:      0.018182  CPU:   70.017
  Cycle:    355 Energy:      -647.990314  Gnorm:      0.015490  CPU:   70.229
  Cycle:    356 Energy:      -647.990678  Gnorm:      0.018364  CPU:   70.441
  Cycle:    357 Energy:      -647.991157  Gnorm:      0.016711  CPU:   70.653
  Cycle:    358 Energy:      -647.991493  Gnorm:      0.014660  CPU:   70.865
  Cycle:    359 Energy:      -647.992121  Gnorm:      0.030094  CPU:   71.077
  Cycle:    360 Energy:      -647.992613  Gnorm:      0.016801  CPU:   71.288
  Cycle:    361 Energy:      -647.992883  Gnorm:      0.017861  CPU:   71.500
  Cycle:    362 Energy:      -647.993153  Gnorm:      0.015444  CPU:   71.712
  Cycle:    363 Energy:      -647.993573  Gnorm:      0.018399  CPU:   71.923
  Cycle:    364 Energy:      -647.993875  Gnorm:      0.015681  CPU:   72.135
  Cycle:    365 Energy:      -647.994148  Gnorm:      0.016773  CPU:   72.347
  Cycle:    366 Energy:      -647.994587  Gnorm:      0.018732  CPU:   72.559
  Cycle:    367 Energy:      -647.994977  Gnorm:      0.016704  CPU:   72.770
  Cycle:    368 Energy:      -647.995493  Gnorm:      0.020379  CPU:   72.982
  Cycle:    369 Energy:      -647.995892  Gnorm:      0.021320  CPU:   73.193
  Cycle:    370 Energy:      -647.996137  Gnorm:      0.019065  CPU:   73.405
  Cycle:    371 Energy:      -647.996690  Gnorm:      0.015385  CPU:   73.667
  Cycle:    372 Energy:      -647.997073  Gnorm:      0.016516  CPU:   73.929
  Cycle:    373 Energy:      -647.997468  Gnorm:      0.015292  CPU:   74.140
  Cycle:    374 Energy:      -647.997726  Gnorm:      0.015285  CPU:   74.354
  Cycle:    375 Energy:      -647.997997  Gnorm:      0.017706  CPU:   74.565
  Cycle:    376 Energy:      -647.998302  Gnorm:      0.016516  CPU:   74.777
  Cycle:    377 Energy:      -647.998565  Gnorm:      0.015581  CPU:   74.989
  Cycle:    378 Energy:      -647.998808  Gnorm:      0.015260  CPU:   75.200
  Cycle:    379 Energy:      -647.999153  Gnorm:      0.024010  CPU:   75.412
  Cycle:    380 Energy:      -647.999466  Gnorm:      0.014747  CPU:   75.624
  Cycle:    381 Energy:      -647.999703  Gnorm:      0.015002  CPU:   75.835
  Cycle:    382 Energy:      -647.999937  Gnorm:      0.015345  CPU:   76.047
  Cycle:    383 Energy:      -648.000203  Gnorm:      0.016919  CPU:   76.310
  Cycle:    384 Energy:      -648.000462  Gnorm:      0.014838  CPU:   76.521
  Cycle:    385 Energy:      -648.000687  Gnorm:      0.014289  CPU:   76.783
  Cycle:    386 Energy:      -648.001025  Gnorm:      0.015900  CPU:   76.995
  Cycle:    387 Energy:      -648.001378  Gnorm:      0.014187  CPU:   77.202
  Cycle:    388 Energy:      -648.001853  Gnorm:      0.016250  CPU:   77.409
  Cycle:    389 Energy:      -648.002138  Gnorm:      0.021707  CPU:   77.617
  Cycle:    390 Energy:      -648.002378  Gnorm:      0.016185  CPU:   77.824
  Cycle:    391 Energy:      -648.002739  Gnorm:      0.017606  CPU:   78.031
  Cycle:    392 Energy:      -648.002990  Gnorm:      0.014598  CPU:   78.238
  Cycle:    393 Energy:      -648.003257  Gnorm:      0.016634  CPU:   78.445
  Cycle:    394 Energy:      -648.003508  Gnorm:      0.013225  CPU:   78.651
  Cycle:    395 Energy:      -648.003751  Gnorm:      0.012773  CPU:   78.908
  Cycle:    396 Energy:      -648.004063  Gnorm:      0.013599  CPU:   79.115
  Cycle:    397 Energy:      -648.004323  Gnorm:      0.012588  CPU:   79.322
  Cycle:    398 Energy:      -648.004535  Gnorm:      0.013821  CPU:   79.529
  Cycle:    399 Energy:      -648.004742  Gnorm:      0.020982  CPU:   79.736
  Cycle:    400 Energy:      -648.004932  Gnorm:      0.013378  CPU:   79.942
  Cycle:    401 Energy:      -648.005134  Gnorm:      0.012194  CPU:   80.149
  Cycle:    402 Energy:      -648.005370  Gnorm:      0.012637  CPU:   80.356
  Cycle:    403 Energy:      -648.005644  Gnorm:      0.012724  CPU:   80.613
  Cycle:    404 Energy:      -648.005848  Gnorm:      0.013351  CPU:   80.823
  Cycle:    405 Energy:      -648.006023  Gnorm:      0.014855  CPU:   81.034
  Cycle:    406 Energy:      -648.006289  Gnorm:      0.014826  CPU:   81.245
  Cycle:    407 Energy:      -648.006488  Gnorm:      0.015000  CPU:   81.455
  Cycle:    408 Energy:      -648.006776  Gnorm:      0.016299  CPU:   81.665
  Cycle:    409 Energy:      -648.007018  Gnorm:      0.015746  CPU:   81.876
  Cycle:    410 Energy:      -648.007233  Gnorm:      0.015173  CPU:   82.086
  Cycle:    411 Energy:      -648.007500  Gnorm:      0.014627  CPU:   82.297
  Cycle:    412 Energy:      -648.007696  Gnorm:      0.014059  CPU:   82.507
  Cycle:    413 Energy:      -648.007912  Gnorm:      0.013464  CPU:   82.718
  Cycle:    414 Energy:      -648.008076  Gnorm:      0.013573  CPU:   82.928
  Cycle:    415 Energy:      -648.008263  Gnorm:      0.011699  CPU:   83.138
  Cycle:    416 Energy:      -648.008471  Gnorm:      0.012481  CPU:   83.349
  Cycle:    417 Energy:      -648.008694  Gnorm:      0.011919  CPU:   83.559
  Cycle:    418 Energy:      -648.008862  Gnorm:      0.010528  CPU:   83.770
  Cycle:    419 Energy:      -648.009136  Gnorm:      0.021254  CPU:   83.981
  Cycle:    420 Energy:      -648.009375  Gnorm:      0.011217  CPU:   84.191
  Cycle:    421 Energy:      -648.009493  Gnorm:      0.012314  CPU:   84.402
  Cycle:    422 Energy:      -648.009650  Gnorm:      0.011991  CPU:   84.612
  Cycle:    423 Energy:      -648.009827  Gnorm:      0.012542  CPU:   84.823
  Cycle:    424 Energy:      -648.009997  Gnorm:      0.012022  CPU:   85.033
  Cycle:    425 Energy:      -648.010151  Gnorm:      0.011878  CPU:   85.294
  Cycle:    426 Energy:      -648.010337  Gnorm:      0.012487  CPU:   85.504
  Cycle:    427 Energy:      -648.010566  Gnorm:      0.011750  CPU:   85.765
  Cycle:    428 Energy:      -648.010790  Gnorm:      0.014942  CPU:   85.971
  Cycle:    429 Energy:      -648.010972  Gnorm:      0.014070  CPU:   86.177
  Cycle:    430 Energy:      -648.011088  Gnorm:      0.013199  CPU:   86.384
  Cycle:    431 Energy:      -648.011326  Gnorm:      0.011642  CPU:   86.590
  Cycle:    432 Energy:      -648.011527  Gnorm:      0.013173  CPU:   86.796
  Cycle:    433 Energy:      -648.011676  Gnorm:      0.010958  CPU:   87.002
  Cycle:    434 Energy:      -648.011836  Gnorm:      0.011925  CPU:   87.259
  Cycle:    435 Energy:      -648.011983  Gnorm:      0.010649  CPU:   87.465
  Cycle:    436 Energy:      -648.012142  Gnorm:      0.010830  CPU:   87.671
  Cycle:    437 Energy:      -648.012310  Gnorm:      0.011800  CPU:   87.878
  Cycle:    438 Energy:      -648.012402  Gnorm:      0.010047  CPU:   88.084
  Cycle:    439 Energy:      -648.012576  Gnorm:      0.017469  CPU:   88.291
  Cycle:    440 Energy:      -648.012740  Gnorm:      0.009841  CPU:   88.497
  ** Hessian has required structure
  Cycle:    441 Energy:      -648.016291  Gnorm:      0.008385  CPU:   89.055
  ** Hessian has required structure
  Cycle:    442 Energy:      -648.020139  Gnorm:      0.006436  CPU:   89.377
  ** Hessian has required structure
  Cycle:    443 Energy:      -648.023947  Gnorm:      0.004230  CPU:   89.699
  ** Hessian has required structure
  Cycle:    444 Energy:      -648.025831  Gnorm:      0.003377  CPU:   89.971
  ** Hessian has required structure
  Cycle:    445 Energy:      -648.025906  Gnorm:      0.000533  CPU:   90.242
  ** Hessian has required structure


  **** Optimisation achieved ****


  Final enthalpy =    -648.02590715 eV      
  Final Gnorm    =       0.00010861

  Components of enthalpy : 

--------------------------------------------------------------------------------
  Interatomic potentials     =         222.08742409 eV    
  Monopole - monopole (real) =        -508.18240123 eV    
  Monopole - monopole (recip)=        -489.90590206 eV    
  Monopole - monopole (total)=        -998.08830329 eV    
  Pressure*volume            =         127.97497205 eV    
--------------------------------------------------------------------------------
  Total lattice enthalpy     =        -648.02590715 eV    
--------------------------------------------------------------------------------
  Total lattice enthalpy     =          -62524.5941 kJ/(mole unit cells)
--------------------------------------------------------------------------------

  Final fractional coordinates of atoms :

--------------------------------------------------------------------------------
   No.  Atomic        x           y          z          Radius
        Label       (Frac)      (Frac)     (Frac)       (Angs) 
--------------------------------------------------------------------------------
     1  Al    c     0.346587    0.681924    0.948866    0.000000
     2  Al    c     0.594682    0.934727    0.704606    0.000000
     3  Al    c     0.280533    0.276350    0.198425    0.000000
     4  Al    c     0.016049    0.989289    0.945345    0.000000
     5  Al    c     0.291305    0.246584    0.691441    0.000000
     6  Al    c     0.594637    0.928814    0.192133    0.000000
     7  Al    c     0.561943    0.474493    0.435483    0.000000
     8  Al    c     0.160916    0.823638    0.456727    0.000000
     9  Mg    c     0.908554    0.610377    0.193731    0.000000
    10  Mg    c     0.671867    0.360512    0.947251    0.000000
    11  Mg    c     0.962577    0.585583    0.676476    0.000000
    12  Mg    c     0.856237    0.150206    0.442456    0.000000
    13  O     c     0.323422    0.780975    0.557953    0.000000
    14  O     c     0.799484    0.616819    0.547885    0.000000
    15  O     c     0.858391    0.162356    0.282953    0.000000
    16  O     c     0.344607    0.716086    0.102385    0.000000
    17  O     c     0.311084    0.230253    0.536316    0.000000
    18  O     c     0.324382    0.676747    0.788788    0.000000
    19  O     c     0.286534    0.227758    0.851473    0.000000
    20  O     c     0.754200    0.707382    0.871309    0.000000
    21  O     c     0.906306    0.720895    0.366523    0.000000
    22  O     c     0.323411    0.243274    0.334038    0.000000
    23  O     c     0.449482    0.687823    0.284667    0.000000
    24  O     c     0.717636    0.195678    0.099694    0.000000
    25  O     c     0.700266    0.190830    0.628879    0.000000
    26  O     c     0.893853    0.091790    0.759307    0.000000
    27  O     c     0.918124    0.689960    0.039442    0.000000
    28  O     c     0.295783    0.122042    0.029991    0.000000
--------------------------------------------------------------------------------

  Final Cartesian lattice vectors (Angstroms) :

        4.527906   -0.704213    1.602531
       -0.626488    4.566102   -1.623301
        2.212694   -2.412128   11.565332


  Final cell parameters and derivatives :

--------------------------------------------------------------------------------
       a            4.854478 Angstrom     dE/de1(xx)     0.000505 eV/strain
       b            4.886397 Angstrom     dE/de2(yy)    -0.000574 eV/strain
       c           12.019621 Angstrom     dE/de3(zz)     0.000435 eV/strain
       alpha      122.058348 Degrees      dE/de4(yz)    -0.000321 eV/strain
       beta        58.771328 Degrees      dE/de5(xz)     0.001054 eV/strain
       gamma      111.395764 Degrees      dE/de6(xy)     0.000062 eV/strain
--------------------------------------------------------------------------------

  Primitive cell volume =           205.040093 Angs**3

  Density of cell =      4.608828 g/cm**3

  Non-primitive cell volume =           205.040093 Angs**3


  Final internal derivatives :

--------------------------------------------------------------------------------
   No.  Atomic          a             b             c           Radius
        Label          (eV)          (eV)          (eV)        (eV/Angs)
--------------------------------------------------------------------------------
      1 Al    c       0.000000      0.000000      0.000000      0.000000
      2 Al    c      -0.000414     -0.000059     -0.001654      0.000000
      3 Al    c       0.000254     -0.000449      0.000831      0.000000
      4 Al    c       0.001164     -0.001159      0.003010      0.000000
      5 Al    c       0.000162      0.000276      0.001341      0.000000
      6 Al    c      -0.000328      0.000425      0.000306      0.000000
      7 Al    c       0.000261     -0.000246     -0.000297      0.000000
      8 Al    c       0.000175     -0.000062     -0.000242      0.000000
      9 Mg    c       0.000444     -0.000406      0.000723      0.000000
     10 Mg    c      -0.002233      0.003261     -0.001959      0.000000
     11 Mg    c      -0.000665      0.000714     -0.001150      0.000000
     12 Mg    c       0.000166     -0.000205      0.000070      0.000000
     13 O     c      -0.000092      0.000156      0.000174      0.000000
     14 O     c       0.000096      0.000377      0.000024      0.000000
     15 O     c       0.000006      0.000034     -0.000718      0.000000
     16 O     c       0.000492     -0.000604      0.000322      0.000000
     17 O     c       0.000480     -0.000309      0.000538      0.000000
     18 O     c      -0.000587      0.000138      0.000027      0.000000
     19 O     c       0.001121     -0.001034      0.001349      0.000000
     20 O     c       0.000670     -0.002141      0.003392      0.000000
     21 O     c      -0.000232      0.000141     -0.000887      0.000000
     22 O     c       0.000411     -0.000197      0.000296      0.000000
     23 O     c       0.000015     -0.000051     -0.000367      0.000000
     24 O     c      -0.000385      0.000336     -0.000840      0.000000
     25 O     c      -0.000220     -0.000060     -0.000576      0.000000
     26 O     c       0.000555     -0.001084     -0.003873      0.000000
     27 O     c      -0.000663      0.001404     -0.001111      0.000000
     28 O     c      -0.000407      0.000426     -0.000381      0.000000
--------------------------------------------------------------------------------
  Maximum abs         0.002233      0.003261      0.003873      0.000000
--------------------------------------------------------------------------------


  Time to end of optimisation =      90.4638 seconds


  Peak dynamic memory used =       2.03 MB 


  Timing analysis for GULP :

--------------------------------------------------------------------------------
  Task / Subroutine                                          Time (Seconds)
--------------------------------------------------------------------------------
  Calculation of reciprocal space energy and derivatives          1.4098
  Calculation of real space energy and derivatives               88.8395
  Calculation and manipulation of Hessian matrix                  0.0996
  Global summation overhead                                       0.0029
--------------------------------------------------------------------------------
  Total CPU time                                                 90.4639
--------------------------------------------------------------------------------


  Job Finished at 16:20.14 11th June       2024                               

