********************************************************************************
*                       GENERAL UTILITY LATTICE PROGRAM                        *
*                                 Julian Gale                                  *
*                       Curtin Institute for Computation                       *
*                    School of Molecular and Life Sciences                     *
*                    Curtin University, Western Australia                      *
********************************************************************************
* Version = 6.0.0 * Last modified =  12th July 2021                            *
********************************************************************************
*  optimise     - perform optimisation run                                     *
*  conp         - constant pressure calculation                                *
*  nosymmetry   - turn off symmetry after initial structure generation         *
*  conjugate    - use conjugate gradients minimiser                            *
********************************************************************************

  Job Started  at 16:17.02 11th June       2024                               

  Number of CPUs =     1


  Total number of configurations input =      1

********************************************************************************
*  Input for Configuration =   1                                               *
********************************************************************************

  Formula = Al8Mg4O16                                                   

  Number of irreducible atoms/shells =      28


  Total number atoms/shells =      28

  Dimensionality = 3               :  Bulk   



  Cartesian lattice vectors (Angstroms) :

        6.860732   -2.667565    0.063526
        0.475048    6.153017    0.175905
        0.120576    0.122645    4.793414

  Cell parameters (Angstroms/Degrees):

  a =       7.3614    alpha =  86.7960
  b =       6.1738    beta  =  88.6943
  c =       4.7965    gamma = 106.8097

  Initial cell volume =         208.176407 Angs**3

  Temperature of configuration =   0.00     K 

  Pressure of configuration =       100.000 GPa 

  Fractional coordinates of asymmetric unit :

--------------------------------------------------------------------------------
   No.  Atomic       x           y          z         Charge      Occupancy
        Label      (Frac)      (Frac)     (Frac)        (e)         (Frac)  
--------------------------------------------------------------------------------
      1 Al    c    0.020306    0.519596    0.976042     3.00000    1.000000    
      2 Al    c    0.810780 *  0.524600 *  0.523003 *   3.00000    1.000000    
      3 Al    c    0.453199 *  0.205795 *  0.499108 *   3.00000    1.000000    
      4 Al    c    0.131262 *  0.874927 *  0.478641 *   3.00000    1.000000    
      5 Al    c    0.550995 *  0.799654 *  0.843280 *   3.00000    1.000000    
      6 Al    c    0.566763 *  0.778354 *  0.497299 *   3.00000    1.000000    
      7 Al    c    0.353106 *  0.845734 *  0.008577 *   3.00000    1.000000    
      8 Al    c    0.753452 *  0.493563 *  0.877512 *   3.00000    1.000000    
      9 Mg    c    0.180267 *  0.181012 *  0.968248 *   2.00000    1.000000    
     10 Mg    c    0.823856 *  0.814706 *  0.000148 *   2.00000    1.000000    
     11 Mg    c    0.649678 *  0.180300 *  0.636614 *   2.00000    1.000000    
     12 Mg    c    0.502258 *  0.489614 *  0.987939 *   2.00000    1.000000    
     13 O     c    0.458408 *  0.170651 *  0.141314 *  -2.00000    1.000000    
     14 O     c    0.884784 *  0.360552 *  0.296636 *  -2.00000    1.000000    
     15 O     c    0.622207 *  0.554213 *  0.350816 *  -2.00000    1.000000    
     16 O     c    0.704820 *  0.196615 *  0.007531 *  -2.00000    1.000000    
     17 O     c    0.933740 *  0.179885 *  0.843128 *  -2.00000    1.000000    
     18 O     c    0.370578 *  0.407612 *  0.646229 *  -2.00000    1.000000    
     19 O     c    0.212125 *  0.467503 *  0.439778 *  -2.00000    1.000000    
     20 O     c    0.289608 *  0.991519 *  0.728117 *  -2.00000    1.000000    
     21 O     c    0.069766 *  0.589577 *  0.600385 *  -2.00000    1.000000    
     22 O     c    0.257819 *  0.514374 *  0.088873 *  -2.00000    1.000000    
     23 O     c    0.081590 *  0.821330 *  0.125824 *  -2.00000    1.000000    
     24 O     c    0.708999 *  0.976599 *  0.249833 *  -2.00000    1.000000    
     25 O     c    0.360600 *  0.794727 *  0.372637 *  -2.00000    1.000000    
     26 O     c    0.877643 *  0.117987 *  0.497815 *  -2.00000    1.000000    
     27 O     c    0.131688 *  0.167763 *  0.391667 *  -2.00000    1.000000    
     28 O     c    0.874800 *  0.830727 *  0.574591 *  -2.00000    1.000000    
--------------------------------------------------------------------------------



********************************************************************************
*  General input information                                                   *
********************************************************************************

  Species output for all configurations : 

--------------------------------------------------------------------------------
  Species    Type    Atomic    Atomic    Charge       Radii (Angs)     Library
                     Number     Mass       (e)     Cova   Ionic  VDW   Symbol
--------------------------------------------------------------------------------
    Mg       Core       12      24.31   2.000000   1.100  0.000  1.640          
    Al       Core       13      26.98   3.000000   1.350  0.000  2.050          
    O        Core        8      16.00  -2.000000   0.730  0.000  1.360          
--------------------------------------------------------------------------------


  Lattice summation method               =    Ewald          (3-D)
                                         =    Parry          (2-D)
                                         =    Saunders et al (1-D)
  Accuracy factor for lattice sums       =   12.000


  Analytic derivatives to be used

  Time limit = Infinity

  Maximum range for interatomic potentials =    100000.000000 Angstroms

  General interatomic potentials :

--------------------------------------------------------------------------------
Atom  Types   Potential      Parameter       Value         Units   Cutoffs(Ang)
  1     2                                                            Min /  Max 
--------------------------------------------------------------------------------
O    c Mg   c Lennard       Lennard-Jones A  1.5000000    eV*Ang^m  0.000  6.000
                            Lennard-Jones B  0.0000000    eV*Ang^n  
                            Exponent m        12          None
                            Exponent n         6          None
--------------------------------------------------------------------------------
O    c Al   c Lennard       Lennard-Jones A  1.5000000    eV*Ang^m  0.000  6.000
                            Lennard-Jones B  0.0000000    eV*Ang^n  
                            Exponent m        12          None
                            Exponent n         6          None
--------------------------------------------------------------------------------
O    c O    c Lennard       Lennard-Jones A  1.5000000    eV*Ang^m  0.000  6.000
                            Lennard-Jones B  0.0000000    eV*Ang^n  
                            Exponent m        12          None
                            Exponent n         6          None
--------------------------------------------------------------------------------
Mg   c Mg   c Lennard       Lennard-Jones A  1.5000000    eV*Ang^m  0.000  6.000
                            Lennard-Jones B  0.0000000    eV*Ang^n  
                            Exponent m        12          None
                            Exponent n         6          None
--------------------------------------------------------------------------------
Mg   c Al   c Lennard       Lennard-Jones A  1.5000000    eV*Ang^m  0.000  6.000
                            Lennard-Jones B  0.0000000    eV*Ang^n  
                            Exponent m        12          None
                            Exponent n         6          None
--------------------------------------------------------------------------------
Al   c Al   c Lennard       Lennard-Jones A  1.5000000    eV*Ang^m  0.000  6.000
                            Lennard-Jones B  0.0000000    eV*Ang^n  
                            Exponent m        12          None
                            Exponent n         6          None
--------------------------------------------------------------------------------
O    c Mg   c Buckingham    Buckingham A     1428.5000    eV        0.000  7.000
                            Buckingham rho  0.29450000    Ang       
                            Buckingham C     0.0000000    eV*Ang^6  
--------------------------------------------------------------------------------
O    c Al   c Buckingham    Buckingham A     1114.9000    eV        0.000  7.000
                            Buckingham rho  0.31180000    Ang       
                            Buckingham C     0.0000000    eV*Ang^6  
--------------------------------------------------------------------------------
O    c O    c Buckingham    Buckingham A     2023.8000    eV        0.000  7.000
                            Buckingham rho  0.26740000    Ang       
                            Buckingham C     0.0000000    eV*Ang^6  
--------------------------------------------------------------------------------

********************************************************************************
*  Output for configuration   1                                                *
********************************************************************************


  Components of enthalpy : 

--------------------------------------------------------------------------------
  Interatomic potentials     =         178.60054807 eV    
  Monopole - monopole (real) =        -140.41184414 eV    
  Monopole - monopole (recip)=        -414.80090395 eV    
  Monopole - monopole (total)=        -555.21274809 eV    
  Pressure*volume            =         129.93249043 eV    
--------------------------------------------------------------------------------
  Total lattice enthalpy     =        -246.67970958 eV    
--------------------------------------------------------------------------------
  Total lattice enthalpy     =          -23800.8211 kJ/(mole unit cells)
--------------------------------------------------------------------------------


  Number of variables =       87

  Maximum number of calculations  =           850
  Maximum Hessian update interval =            10
  Maximum step size               =   1.000000000
  Maximum parameter tolerance     =   0.000010000
  Maximum function  tolerance     =   0.000010000
  Maximum gradient  tolerance     =   0.001000000
  Maximum gradient  component     =   0.010000000

  Cell parameters to be optimised using strains

  Conjugate gradient optimiser to be used

  Lower half triangular hessian to be used

  Minimiser to switch to RFO
  When gradient norm is less than     0.010000

  Start of bulk optimisation :

  Cycle:      0 Energy:      -246.679710  Gnorm:     17.599999  CPU:    0.038
  Cycle:      1 Energy:      -460.350919  Gnorm:      8.416476  CPU:    0.101
  Cycle:      2 Energy:      -507.020653  Gnorm:      5.125955  CPU:    0.166
  Cycle:      3 Energy:      -551.764841  Gnorm:      4.050790  CPU:    0.229
  Cycle:      4 Energy:      -571.451732  Gnorm:      2.764250  CPU:    0.294
  Cycle:      5 Energy:      -587.707032  Gnorm:      2.956775  CPU:    0.356
  Cycle:      6 Energy:      -600.583126  Gnorm:      2.377009  CPU:    0.422
  Cycle:      7 Energy:      -607.952244  Gnorm:      2.172327  CPU:    0.483
  Cycle:      8 Energy:      -613.599886  Gnorm:      1.449088  CPU:    0.549
  Cycle:      9 Energy:      -617.626302  Gnorm:      1.215048  CPU:    0.610
  Cycle:     10 Energy:      -619.503558  Gnorm:      1.083838  CPU:    0.664
  Cycle:     11 Energy:      -621.281040  Gnorm:      1.037556  CPU:    0.726
  Cycle:     12 Energy:      -624.340614  Gnorm:      1.355961  CPU:    0.807
  Cycle:     13 Energy:      -627.715880  Gnorm:      1.270510  CPU:    0.883
  Cycle:     14 Energy:      -629.469176  Gnorm:      1.059018  CPU:    0.956
  Cycle:     15 Energy:      -631.047635  Gnorm:      0.922680  CPU:    1.050
  Cycle:     16 Energy:      -632.169003  Gnorm:      0.758861  CPU:    1.139
  Cycle:     17 Energy:      -633.266486  Gnorm:      0.768213  CPU:    1.233
  Cycle:     18 Energy:      -634.058851  Gnorm:      0.770846  CPU:    1.305
  Cycle:     19 Energy:      -635.453541  Gnorm:      0.774922  CPU:    1.399
  Cycle:     20 Energy:      -636.205996  Gnorm:      0.836692  CPU:    1.449
  Cycle:     21 Energy:      -637.188636  Gnorm:      0.650779  CPU:    1.510
  Cycle:     22 Energy:      -637.898801  Gnorm:      0.680287  CPU:    1.575
  Cycle:     23 Energy:      -638.581896  Gnorm:      0.644251  CPU:    1.625
  Cycle:     24 Energy:      -639.181107  Gnorm:      0.485005  CPU:    1.691
  Cycle:     25 Energy:      -639.647323  Gnorm:      0.425066  CPU:    1.752
  Cycle:     26 Energy:      -640.041836  Gnorm:      0.449566  CPU:    1.817
  Cycle:     27 Energy:      -640.276589  Gnorm:      0.354731  CPU:    1.868
  Cycle:     28 Energy:      -640.466656  Gnorm:      0.313697  CPU:    1.933
  Cycle:     29 Energy:      -640.617258  Gnorm:      0.244775  CPU:    1.983
  Cycle:     30 Energy:      -640.686812  Gnorm:      0.221768  CPU:    2.038
  Cycle:     31 Energy:      -640.771349  Gnorm:      0.216891  CPU:    2.100
  Cycle:     32 Energy:      -640.861444  Gnorm:      0.263378  CPU:    2.165
  Cycle:     33 Energy:      -640.982929  Gnorm:      0.227082  CPU:    2.227
  Cycle:     34 Energy:      -641.078934  Gnorm:      0.275999  CPU:    2.292
  Cycle:     35 Energy:      -641.196136  Gnorm:      0.210934  CPU:    2.343
  Cycle:     36 Energy:      -641.265940  Gnorm:      0.161438  CPU:    2.409
  Cycle:     37 Energy:      -641.324165  Gnorm:      0.189964  CPU:    2.471
  Cycle:     38 Energy:      -641.414153  Gnorm:      0.210998  CPU:    2.537
  Cycle:     39 Energy:      -641.463598  Gnorm:      0.175363  CPU:    2.588
  Cycle:     40 Energy:      -641.489478  Gnorm:      0.139796  CPU:    2.642
  Cycle:     41 Energy:      -641.530102  Gnorm:      0.126451  CPU:    2.705
  Cycle:     42 Energy:      -641.554580  Gnorm:      0.108904  CPU:    2.759
  Cycle:     43 Energy:      -641.584870  Gnorm:      0.113933  CPU:    2.821
  Cycle:     44 Energy:      -641.621804  Gnorm:      0.141365  CPU:    2.887
  Cycle:     45 Energy:      -641.660941  Gnorm:      0.189312  CPU:    2.938
  Cycle:     46 Energy:      -641.756553  Gnorm:      0.204948  CPU:    3.004
  Cycle:     47 Energy:      -641.818646  Gnorm:      0.179469  CPU:    3.055
  Cycle:     48 Energy:      -641.893935  Gnorm:      0.201274  CPU:    3.121
  Cycle:     49 Energy:      -641.968449  Gnorm:      0.200456  CPU:    3.171
  Cycle:     50 Energy:      -642.007401  Gnorm:      0.154320  CPU:    3.226
  Cycle:     51 Energy:      -642.050230  Gnorm:      0.157363  CPU:    3.288
  Cycle:     52 Energy:      -642.091416  Gnorm:      0.146581  CPU:    3.354
  Cycle:     53 Energy:      -642.136347  Gnorm:      0.152802  CPU:    3.416
  Cycle:     54 Energy:      -642.170689  Gnorm:      0.142076  CPU:    3.471
  Cycle:     55 Energy:      -642.218538  Gnorm:      0.134086  CPU:    3.533
  Cycle:     56 Energy:      -642.279753  Gnorm:      0.224950  CPU:    3.599
  Cycle:     57 Energy:      -642.377458  Gnorm:      0.228917  CPU:    3.661
  Cycle:     58 Energy:      -642.484877  Gnorm:      0.214708  CPU:    3.716
  Cycle:     59 Energy:      -642.556232  Gnorm:      0.213475  CPU:    3.767
  Cycle:     60 Energy:      -642.602304  Gnorm:      0.146748  CPU:    3.822
  Cycle:     61 Energy:      -642.631679  Gnorm:      0.117720  CPU:    3.884
  Cycle:     62 Energy:      -642.684798  Gnorm:      0.163276  CPU:    3.951
  Cycle:     63 Energy:      -642.717548  Gnorm:      0.139584  CPU:    4.002
  Cycle:     64 Energy:      -642.753050  Gnorm:      0.140830  CPU:    4.057
  Cycle:     65 Energy:      -642.797420  Gnorm:      0.172325  CPU:    4.120
  Cycle:     66 Energy:      -642.870034  Gnorm:      0.167372  CPU:    4.187
  Cycle:     67 Energy:      -642.933983  Gnorm:      0.202079  CPU:    4.239
  Cycle:     68 Energy:      -642.997568  Gnorm:      0.179770  CPU:    4.290
  Cycle:     69 Energy:      -643.056682  Gnorm:      0.166937  CPU:    4.353
  Cycle:     70 Energy:      -643.090396  Gnorm:      0.153535  CPU:    4.404
  Cycle:     71 Energy:      -643.141106  Gnorm:      0.161374  CPU:    4.467
  Cycle:     72 Energy:      -643.186986  Gnorm:      0.149438  CPU:    4.518
  Cycle:     73 Energy:      -643.232334  Gnorm:      0.151675  CPU:    4.581
  Cycle:     74 Energy:      -643.279809  Gnorm:      0.150790  CPU:    4.643
  Cycle:     75 Energy:      -643.319501  Gnorm:      0.137732  CPU:    4.695
  Cycle:     76 Energy:      -643.357845  Gnorm:      0.149384  CPU:    4.761
  Cycle:     77 Energy:      -643.397114  Gnorm:      0.122377  CPU:    4.813
  Cycle:     78 Energy:      -643.438335  Gnorm:      0.125578  CPU:    4.879
  Cycle:     79 Energy:      -643.474263  Gnorm:      0.139382  CPU:    4.931
  Cycle:     80 Energy:      -643.490895  Gnorm:      0.094556  CPU:    4.986
  Cycle:     81 Energy:      -643.519838  Gnorm:      0.090057  CPU:    5.049
  Cycle:     82 Energy:      -643.541415  Gnorm:      0.103509  CPU:    5.104
  Cycle:     83 Energy:      -643.556039  Gnorm:      0.086005  CPU:    5.156
  Cycle:     84 Energy:      -643.575520  Gnorm:      0.091856  CPU:    5.222
  Cycle:     85 Energy:      -643.587725  Gnorm:      0.079306  CPU:    5.274
  Cycle:     86 Energy:      -643.600096  Gnorm:      0.063087  CPU:    5.340
  Cycle:     87 Energy:      -643.612534  Gnorm:      0.066382  CPU:    5.403
  Cycle:     88 Energy:      -643.620488  Gnorm:      0.078469  CPU:    5.458
  Cycle:     89 Energy:      -643.633964  Gnorm:      0.083829  CPU:    5.521
  Cycle:     90 Energy:      -643.642845  Gnorm:      0.059731  CPU:    5.576
  Cycle:     91 Energy:      -643.647866  Gnorm:      0.053634  CPU:    5.628
  Cycle:     92 Energy:      -643.654297  Gnorm:      0.042241  CPU:    5.683
  Cycle:     93 Energy:      -643.659668  Gnorm:      0.051221  CPU:    5.735
  Cycle:     94 Energy:      -643.664100  Gnorm:      0.047711  CPU:    5.790
  Cycle:     95 Energy:      -643.669551  Gnorm:      0.046426  CPU:    5.841
  Cycle:     96 Energy:      -643.673780  Gnorm:      0.053357  CPU:    5.896
  Cycle:     97 Energy:      -643.678628  Gnorm:      0.043661  CPU:    5.948
  Cycle:     98 Energy:      -643.684686  Gnorm:      0.045529  CPU:    6.014
  Cycle:     99 Energy:      -643.688880  Gnorm:      0.053594  CPU:    6.066
  Cycle:    100 Energy:      -643.691966  Gnorm:      0.040751  CPU:    6.117
  Cycle:    101 Energy:      -643.696168  Gnorm:      0.039861  CPU:    6.180
  Cycle:    102 Energy:      -643.699285  Gnorm:      0.041712  CPU:    6.230
  Cycle:    103 Energy:      -643.702248  Gnorm:      0.034178  CPU:    6.282
  Cycle:    104 Energy:      -643.704768  Gnorm:      0.032653  CPU:    6.333
  Cycle:    105 Energy:      -643.707383  Gnorm:      0.034107  CPU:    6.384
  Cycle:    106 Energy:      -643.709498  Gnorm:      0.033339  CPU:    6.435
  Cycle:    107 Energy:      -643.711407  Gnorm:      0.031427  CPU:    6.487
  Cycle:    108 Energy:      -643.714407  Gnorm:      0.032044  CPU:    6.538
  Cycle:    109 Energy:      -643.718885  Gnorm:      0.054748  CPU:    6.589
  Cycle:    110 Energy:      -643.721758  Gnorm:      0.036943  CPU:    6.640
  Cycle:    111 Energy:      -643.723785  Gnorm:      0.027833  CPU:    6.692
  Cycle:    112 Energy:      -643.725853  Gnorm:      0.022612  CPU:    6.742
  Cycle:    113 Energy:      -643.727615  Gnorm:      0.027220  CPU:    6.794
  Cycle:    114 Energy:      -643.728824  Gnorm:      0.026960  CPU:    6.845
  Cycle:    115 Energy:      -643.730156  Gnorm:      0.024613  CPU:    6.896
  Cycle:    116 Energy:      -643.731776  Gnorm:      0.027425  CPU:    6.947
  Cycle:    117 Energy:      -643.733297  Gnorm:      0.026913  CPU:    6.999
  Cycle:    118 Energy:      -643.735124  Gnorm:      0.027019  CPU:    7.050
  Cycle:    119 Energy:      -643.736578  Gnorm:      0.029336  CPU:    7.101
  Cycle:    120 Energy:      -643.737755  Gnorm:      0.026458  CPU:    7.152
  Cycle:    121 Energy:      -643.739086  Gnorm:      0.025277  CPU:    7.204
  Cycle:    122 Energy:      -643.740370  Gnorm:      0.024051  CPU:    7.254
  Cycle:    123 Energy:      -643.741648  Gnorm:      0.020927  CPU:    7.306
  Cycle:    124 Energy:      -643.742475  Gnorm:      0.020074  CPU:    7.357
  Cycle:    125 Energy:      -643.743415  Gnorm:      0.021339  CPU:    7.408
  Cycle:    126 Energy:      -643.744397  Gnorm:      0.018889  CPU:    7.459
  Cycle:    127 Energy:      -643.745074  Gnorm:      0.021825  CPU:    7.511
  Cycle:    128 Energy:      -643.746149  Gnorm:      0.020041  CPU:    7.562
  Cycle:    129 Energy:      -643.747923  Gnorm:      0.030972  CPU:    7.625
  Cycle:    130 Energy:      -643.749426  Gnorm:      0.018615  CPU:    7.680
  Cycle:    131 Energy:      -643.750224  Gnorm:      0.020664  CPU:    7.732
  Cycle:    132 Energy:      -643.750785  Gnorm:      0.015832  CPU:    7.787
  Cycle:    133 Energy:      -643.751472  Gnorm:      0.017769  CPU:    7.850
  Cycle:    134 Energy:      -643.752097  Gnorm:      0.016640  CPU:    7.905
  Cycle:    135 Energy:      -643.752589  Gnorm:      0.016359  CPU:    7.956
  Cycle:    136 Energy:      -643.753267  Gnorm:      0.018818  CPU:    8.011
  Cycle:    137 Energy:      -643.753904  Gnorm:      0.017967  CPU:    8.063
  Cycle:    138 Energy:      -643.754629  Gnorm:      0.017790  CPU:    8.118
  Cycle:    139 Energy:      -643.755262  Gnorm:      0.017685  CPU:    8.169
  Cycle:    140 Energy:      -643.755765  Gnorm:      0.017352  CPU:    8.224
  Cycle:    141 Energy:      -643.756319  Gnorm:      0.016951  CPU:    8.275
  Cycle:    142 Energy:      -643.756857  Gnorm:      0.016060  CPU:    8.330
  Cycle:    143 Energy:      -643.757471  Gnorm:      0.013367  CPU:    8.393
  Cycle:    144 Energy:      -643.757820  Gnorm:      0.013704  CPU:    8.448
  Cycle:    145 Energy:      -643.758204  Gnorm:      0.014566  CPU:    8.499
  Cycle:    146 Energy:      -643.758596  Gnorm:      0.012794  CPU:    8.554
  Cycle:    147 Energy:      -643.758907  Gnorm:      0.014043  CPU:    8.605
  Cycle:    148 Energy:      -643.759381  Gnorm:      0.013367  CPU:    8.660
  Cycle:    149 Energy:      -643.760066  Gnorm:      0.019875  CPU:    8.723
  Cycle:    150 Energy:      -643.760662  Gnorm:      0.012484  CPU:    8.778
  Cycle:    151 Energy:      -643.761042  Gnorm:      0.012714  CPU:    8.829
  Cycle:    152 Energy:      -643.761285  Gnorm:      0.011181  CPU:    8.884
  Cycle:    153 Energy:      -643.761569  Gnorm:      0.011749  CPU:    8.935
  Cycle:    154 Energy:      -643.761850  Gnorm:      0.011390  CPU:    8.990
  Cycle:    155 Energy:      -643.762072  Gnorm:      0.010549  CPU:    9.042
  Cycle:    156 Energy:      -643.762433  Gnorm:      0.012992  CPU:    9.097
  Cycle:    157 Energy:      -643.762703  Gnorm:      0.012338  CPU:    9.148
  Cycle:    158 Energy:      -643.763017  Gnorm:      0.011986  CPU:    9.203
  Cycle:    159 Energy:      -643.763280  Gnorm:      0.011568  CPU:    9.255
  Cycle:    160 Energy:      -643.763512  Gnorm:      0.011563  CPU:    9.310
  Cycle:    161 Energy:      -643.763739  Gnorm:      0.010955  CPU:    9.362
  Cycle:    162 Energy:      -643.763975  Gnorm:      0.011121  CPU:    9.417
  Cycle:    163 Energy:      -643.764260  Gnorm:      0.008918  CPU:    9.468
  ** Hessian has required structure
  Cycle:    164 Energy:      -643.767293  Gnorm:      0.006091  CPU:    9.674
  ** Hessian has required structure
  Cycle:    165 Energy:      -643.769762  Gnorm:      0.002690  CPU:    9.766
  ** Hessian has required structure
  Cycle:    166 Energy:      -643.770152  Gnorm:      0.001101  CPU:    9.840
  ** Hessian has required structure
  Cycle:    167 Energy:      -643.770186  Gnorm:      0.000630  CPU:    9.910
  ** Hessian has required structure


  **** Optimisation achieved ****


  Final enthalpy =    -643.77018912 eV      
  Final Gnorm    =       0.00012543

  Components of enthalpy : 

--------------------------------------------------------------------------------
  Interatomic potentials     =         222.69016026 eV    
  Monopole - monopole (real) =        -506.17421297 eV    
  Monopole - monopole (recip)=        -488.99672466 eV    
  Monopole - monopole (total)=        -995.17093763 eV    
  Pressure*volume            =         128.71058825 eV    
--------------------------------------------------------------------------------
  Total lattice enthalpy     =        -643.77018912 eV    
--------------------------------------------------------------------------------
  Total lattice enthalpy     =          -62113.9823 kJ/(mole unit cells)
--------------------------------------------------------------------------------

  Final fractional coordinates of atoms :

--------------------------------------------------------------------------------
   No.  Atomic        x           y          z          Radius
        Label       (Frac)      (Frac)     (Frac)       (Angs) 
--------------------------------------------------------------------------------
     1  Al    c     0.020306    0.519596    0.976042    0.000000
     2  Al    c     0.076675    0.281795    0.494695    0.000000
     3  Al    c     0.406592    0.259503    0.503486    0.000000
     4  Al    c     0.005918    0.763656    0.463252    0.000000
     5  Al    c     0.534738    0.011034    0.957780    0.000000
     6  Al    c     0.676133    0.748886    0.479094    0.000000
     7  Al    c     0.338063    0.774877    0.473811    0.000000
     8  Al    c     0.693849    0.527204    0.986117    0.000000
     9  Mg    c     0.202488    0.031302    0.009336    0.000000
    10  Mg    c     0.871166    0.027405    0.979357    0.000000
    11  Mg    c     0.726695    0.242110    0.471177    0.000000
    12  Mg    c     0.356021    0.538111    0.988932    0.000000
    13  O     c     0.477801    0.059290    0.287749    0.000000
    14  O     c     0.949934    0.364016    0.269836    0.000000
    15  O     c     0.624335    0.463647    0.332671    0.000000
    16  O     c     0.748367    0.262082    0.891837    0.000000
    17  O     c     0.116480    0.267453    0.878262    0.000000
    18  O     c     0.491369    0.387965    0.835325    0.000000
    19  O     c     0.318989    0.468691    0.403579    0.000000
    20  O     c     0.355610    0.998163    0.738495    0.000000
    21  O     c     0.105709    0.608946    0.646285    0.000000
    22  O     c     0.222739    0.721332    0.141966    0.000000
    23  O     c     0.929652    0.749037    0.125734    0.000000
    24  O     c     0.633773    0.819686    0.135081    0.000000
    25  O     c     0.527206    0.803392    0.683458    0.000000
    26  O     c     0.861277    0.026073    0.540477    0.000000
    27  O     c     0.162331    0.058212    0.412045    0.000000
    28  O     c     0.823276    0.656756    0.684693    0.000000
--------------------------------------------------------------------------------

  Final Cartesian lattice vectors (Angstroms) :

        7.330314   -3.289043    0.141004
       -0.097862    6.022882   -0.053668
        0.098599   -0.065526    4.707290


  Final cell parameters and derivatives :

--------------------------------------------------------------------------------
       a            8.035620 Angstrom     dE/de1(xx)     0.001435 eV/strain
       b            6.023917 Angstrom     dE/de2(yy)    -0.000960 eV/strain
       c            4.708778 Angstrom     dE/de3(zz)     0.000241 eV/strain
       alpha       91.327071 Degrees      dE/de4(yz)    -0.002133 eV/strain
       beta        87.573419 Degrees      dE/de5(xz)     0.000589 eV/strain
       gamma      115.100897 Degrees      dE/de6(xy)    -0.001893 eV/strain
--------------------------------------------------------------------------------

  Primitive cell volume =           206.218689 Angs**3

  Density of cell =      4.582488 g/cm**3

  Non-primitive cell volume =           206.218689 Angs**3


  Final internal derivatives :

--------------------------------------------------------------------------------
   No.  Atomic          a             b             c           Radius
        Label          (eV)          (eV)          (eV)        (eV/Angs)
--------------------------------------------------------------------------------
      1 Al    c       0.000000      0.000000      0.000000      0.000000
      2 Al    c       0.000620      0.000128      0.000546      0.000000
      3 Al    c      -0.001946      0.000360     -0.000369      0.000000
      4 Al    c       0.000263      0.001004     -0.001766      0.000000
      5 Al    c      -0.000120     -0.000401     -0.000430      0.000000
      6 Al    c       0.000038     -0.000314     -0.000195      0.000000
      7 Al    c      -0.000977     -0.000828     -0.000385      0.000000
      8 Al    c       0.000186      0.000138      0.000363      0.000000
      9 Mg    c      -0.001052      0.000075      0.000953      0.000000
     10 Mg    c       0.000712      0.000185      0.001539      0.000000
     11 Mg    c      -0.001900      0.000360      0.000090      0.000000
     12 Mg    c      -0.001382     -0.000158      0.000077      0.000000
     13 O     c       0.000031      0.000260     -0.001646      0.000000
     14 O     c       0.001161     -0.001646     -0.000848      0.000000
     15 O     c      -0.000672     -0.000527      0.000882      0.000000
     16 O     c      -0.001620      0.000401     -0.000612      0.000000
     17 O     c      -0.002155     -0.000341      0.000253      0.000000
     18 O     c       0.002209     -0.001398     -0.000159      0.000000
     19 O     c       0.000160     -0.000146      0.000549      0.000000
     20 O     c       0.004679     -0.001355      0.000754      0.000000
     21 O     c       0.001830     -0.000521     -0.000385      0.000000
     22 O     c       0.000801      0.001710      0.001026      0.000000
     23 O     c      -0.003253      0.003032      0.000095      0.000000
     24 O     c      -0.000018     -0.000129     -0.000585      0.000000
     25 O     c       0.001252     -0.001004      0.000699      0.000000
     26 O     c       0.000578     -0.001477      0.000469      0.000000
     27 O     c      -0.000930     -0.000715      0.000014      0.000000
     28 O     c       0.000044     -0.000659     -0.000910      0.000000
--------------------------------------------------------------------------------
  Maximum abs         0.004679      0.003032      0.001766      0.000000
--------------------------------------------------------------------------------


  Time to end of optimisation =       9.9805 seconds


  Peak dynamic memory used =       2.03 MB 


  Timing analysis for GULP :

--------------------------------------------------------------------------------
  Task / Subroutine                                          Time (Seconds)
--------------------------------------------------------------------------------
  Calculation of reciprocal space energy and derivatives          0.4633
  Calculation of real space energy and derivatives                9.3745
  Calculation and manipulation of Hessian matrix                  0.0954
  Global summation overhead                                       0.0011
--------------------------------------------------------------------------------
  Total CPU time                                                  9.9806
--------------------------------------------------------------------------------


  Job Finished at 16:17.12 11th June       2024                               

