********************************************************************************
*                       GENERAL UTILITY LATTICE PROGRAM                        *
*                                 Julian Gale                                  *
*                       Curtin Institute for Computation                       *
*                    School of Molecular and Life Sciences                     *
*                    Curtin University, Western Australia                      *
********************************************************************************
* Version = 6.0.0 * Last modified =  12th July 2021                            *
********************************************************************************
*  optimise     - perform optimisation run                                     *
*  conp         - constant pressure calculation                                *
*  nosymmetry   - turn off symmetry after initial structure generation         *
*  conjugate    - use conjugate gradients minimiser                            *
********************************************************************************

  Job Started  at 16:06.05 11th June       2024                               

  Number of CPUs =     1


  Total number of configurations input =      1

********************************************************************************
*  Input for Configuration =   1                                               *
********************************************************************************

  Formula = Al8Mg4O16                                                   

  Number of irreducible atoms/shells =      28


  Total number atoms/shells =      28

  Dimensionality = 3               :  Bulk   



  Cartesian lattice vectors (Angstroms) :

       14.536680    1.554181    6.027437
        5.453649    7.383704   -3.002594
        3.462137   -2.517515    5.776462

  Cell parameters (Angstroms/Degrees):

  a =      15.8133    alpha = 104.2153
  b =       9.6580    beta  =  44.3985
  c =       7.1897    gamma =  61.5932

  Initial cell volume =         208.176407 Angs**3

  Temperature of configuration =   0.00     K 

  Pressure of configuration =       100.000 GPa 

  Fractional coordinates of asymmetric unit :

--------------------------------------------------------------------------------
   No.  Atomic       x           y          z         Charge      Occupancy
        Label      (Frac)      (Frac)     (Frac)        (e)         (Frac)  
--------------------------------------------------------------------------------
      1 Al    c    0.512969    0.068962    0.290965     3.00000    1.000000    
      2 Al    c    0.473888 *  0.306620 *  0.305687 *   3.00000    1.000000    
      3 Al    c    0.264888 *  0.120284 *  0.291720 *   3.00000    1.000000    
      4 Al    c    0.076721 *  0.511381 *  0.279758 *   3.00000    1.000000    
      5 Al    c    0.123984 *  0.273248 *  0.257043 *   3.00000    1.000000    
      6 Al    c    0.331264 *  0.454936 *  0.290663 *   3.00000    1.000000    
      7 Al    c    0.206385 *  0.494318 *  0.005013 *   3.00000    1.000000    
      8 Al    c    0.411956 *  0.114918 *  0.004402 *   3.00000    1.000000    
      9 Mg    c    0.105363 *  0.105798 *  0.565925 *   2.00000    1.000000    
     10 Mg    c    0.481531 *  0.476182 *  0.000087 *   2.00000    1.000000    
     11 Mg    c    0.011868 *  0.303695 *  0.570481 *   2.00000    1.000000    
     12 Mg    c    0.293562 *  0.286172 *  0.577435 *   2.00000    1.000000    
     13 O     c    0.267932 *  0.099743 *  0.082596 *  -2.00000    1.000000    
     14 O     c    0.517142 *  0.210737 *  0.173379 *  -2.00000    1.000000    
     15 O     c    0.363670 *  0.323929 *  0.205047 *  -2.00000    1.000000    
     16 O     c    0.440381 *  0.288480 *  0.512892 *  -2.00000    1.000000    
     17 O     c    0.545756 *  0.105140 *  0.492795 *  -2.00000    1.000000    
     18 O     c    0.216597 *  0.238243 *  0.377710 *  -2.00000    1.000000    
     19 O     c    0.322048 *  0.467385 *  0.492884 *  -2.00000    1.000000    
     20 O     c    0.169271 *  0.579527 *  0.425573 *  -2.00000    1.000000    
     21 O     c    0.040777 *  0.344598 *  0.350916 *  -2.00000    1.000000    
     22 O     c    0.150691 *  0.300643 *  0.051945 *  -2.00000    1.000000    
     23 O     c    0.047688 *  0.480055 *  0.073542 *  -2.00000    1.000000    
     24 O     c    0.414399 *  0.570807 *  0.146023 *  -2.00000    1.000000    
     25 O     c    0.210765 *  0.464505 *  0.217800 *  -2.00000    1.000000    
     26 O     c    0.379726 *  0.105382 *  0.372091 *  -2.00000    1.000000    
     27 O     c    0.076970 *  0.098055 *  0.228923 *  -2.00000    1.000000    
     28 O     c    0.511307 *  0.485547 *  0.335839 *  -2.00000    1.000000    
--------------------------------------------------------------------------------



********************************************************************************
*  General input information                                                   *
********************************************************************************

  Species output for all configurations : 

--------------------------------------------------------------------------------
  Species    Type    Atomic    Atomic    Charge       Radii (Angs)     Library
                     Number     Mass       (e)     Cova   Ionic  VDW   Symbol
--------------------------------------------------------------------------------
    Mg       Core       12      24.31   2.000000   1.100  0.000  1.640          
    Al       Core       13      26.98   3.000000   1.350  0.000  2.050          
    O        Core        8      16.00  -2.000000   0.730  0.000  1.360          
--------------------------------------------------------------------------------


  Lattice summation method               =    Ewald          (3-D)
                                         =    Parry          (2-D)
                                         =    Saunders et al (1-D)
  Accuracy factor for lattice sums       =   12.000


  Analytic derivatives to be used

  Time limit = Infinity

  Maximum range for interatomic potentials =    100000.000000 Angstroms

  General interatomic potentials :

--------------------------------------------------------------------------------
Atom  Types   Potential      Parameter       Value         Units   Cutoffs(Ang)
  1     2                                                            Min /  Max 
--------------------------------------------------------------------------------
O    c Mg   c Lennard       Lennard-Jones A  1.5000000    eV*Ang^m  0.000  6.000
                            Lennard-Jones B  0.0000000    eV*Ang^n  
                            Exponent m        12          None
                            Exponent n         6          None
--------------------------------------------------------------------------------
O    c Al   c Lennard       Lennard-Jones A  1.5000000    eV*Ang^m  0.000  6.000
                            Lennard-Jones B  0.0000000    eV*Ang^n  
                            Exponent m        12          None
                            Exponent n         6          None
--------------------------------------------------------------------------------
O    c O    c Lennard       Lennard-Jones A  1.5000000    eV*Ang^m  0.000  6.000
                            Lennard-Jones B  0.0000000    eV*Ang^n  
                            Exponent m        12          None
                            Exponent n         6          None
--------------------------------------------------------------------------------
Mg   c Mg   c Lennard       Lennard-Jones A  1.5000000    eV*Ang^m  0.000  6.000
                            Lennard-Jones B  0.0000000    eV*Ang^n  
                            Exponent m        12          None
                            Exponent n         6          None
--------------------------------------------------------------------------------
Mg   c Al   c Lennard       Lennard-Jones A  1.5000000    eV*Ang^m  0.000  6.000
                            Lennard-Jones B  0.0000000    eV*Ang^n  
                            Exponent m        12          None
                            Exponent n         6          None
--------------------------------------------------------------------------------
Al   c Al   c Lennard       Lennard-Jones A  1.5000000    eV*Ang^m  0.000  6.000
                            Lennard-Jones B  0.0000000    eV*Ang^n  
                            Exponent m        12          None
                            Exponent n         6          None
--------------------------------------------------------------------------------
O    c Mg   c Buckingham    Buckingham A     1428.5000    eV        0.000  7.000
                            Buckingham rho  0.29450000    Ang       
                            Buckingham C     0.0000000    eV*Ang^6  
--------------------------------------------------------------------------------
O    c Al   c Buckingham    Buckingham A     1114.9000    eV        0.000  7.000
                            Buckingham rho  0.31180000    Ang       
                            Buckingham C     0.0000000    eV*Ang^6  
--------------------------------------------------------------------------------
O    c O    c Buckingham    Buckingham A     2023.8000    eV        0.000  7.000
                            Buckingham rho  0.26740000    Ang       
                            Buckingham C     0.0000000    eV*Ang^6  
--------------------------------------------------------------------------------

********************************************************************************
*  Output for configuration   1                                                *
********************************************************************************


  Components of enthalpy : 

--------------------------------------------------------------------------------
  Interatomic potentials     =     7007951.43212848 eV    
  Monopole - monopole (real) =        -805.11243009 eV    
  Monopole - monopole (recip)=        -450.36432215 eV    
  Monopole - monopole (total)=       -1255.47675223 eV    
  Pressure*volume            =         129.93249040 eV    
--------------------------------------------------------------------------------
  Total lattice enthalpy     =     7006825.88786665 eV    
--------------------------------------------------------------------------------
  Total lattice enthalpy     =       676051589.0359 kJ/(mole unit cells)
--------------------------------------------------------------------------------


  Number of variables =       87

  Maximum number of calculations  =           850
  Maximum Hessian update interval =            10
  Maximum step size               =   1.000000000
  Maximum parameter tolerance     =   0.000010000
  Maximum function  tolerance     =   0.000010000
  Maximum gradient  tolerance     =   0.001000000
  Maximum gradient  component     =   0.010000000

  Cell parameters to be optimised using strains

  Conjugate gradient optimiser to be used

  Lower half triangular hessian to be used

  Minimiser to switch to RFO
  When gradient norm is less than     0.010000

  Start of bulk optimisation :

  Cycle:      0 Energy:   7006825.887867  Gnorm:**************  CPU:    0.151
  Cycle:      1 Energy:      6659.505331  Gnorm:  24127.245415  CPU:    0.724
  Cycle:      2 Energy:       577.949163  Gnorm:    256.487189  CPU:    1.294
  Cycle:      3 Energy:       338.101173  Gnorm:     81.835654  CPU:    1.800
  Cycle:      4 Energy:       148.031885  Gnorm:     76.137720  CPU:    2.116
  Cycle:      5 Energy:        82.714605  Gnorm:     48.723870  CPU:    2.430
  Cycle:      6 Energy:       -16.246382  Gnorm:     63.318643  CPU:    2.804
  Cycle:      7 Energy:      -122.566359  Gnorm:     53.831537  CPU:    3.238
  Cycle:      8 Energy:      -282.365515  Gnorm:     37.064503  CPU:    3.740
  Cycle:      9 Energy:      -343.759587  Gnorm:     22.515687  CPU:    4.173
  Cycle:     10 Energy:      -373.928691  Gnorm:     20.010166  CPU:    4.611
  Cycle:     11 Energy:      -447.919730  Gnorm:     17.040864  CPU:    5.047
  Cycle:     12 Energy:      -488.586710  Gnorm:     13.940839  CPU:    5.358
  Cycle:     13 Energy:      -512.197644  Gnorm:      8.156533  CPU:    5.672
  Cycle:     14 Energy:      -525.085369  Gnorm:      8.161142  CPU:    5.985
  Cycle:     15 Energy:      -548.880954  Gnorm:      7.289765  CPU:    6.316
  Cycle:     16 Energy:      -556.970981  Gnorm:      6.305439  CPU:    6.573
  Cycle:     17 Energy:      -567.251037  Gnorm:      5.226538  CPU:    6.898
  Cycle:     18 Energy:      -576.310842  Gnorm:      4.925405  CPU:    7.222
  Cycle:     19 Energy:      -581.279991  Gnorm:      4.270900  CPU:    7.480
  Cycle:     20 Energy:      -583.681226  Gnorm:      2.594772  CPU:    7.739
  Cycle:     21 Energy:      -585.747526  Gnorm:      2.426495  CPU:    8.060
  Cycle:     22 Energy:      -587.918610  Gnorm:      2.811862  CPU:    8.392
  Cycle:     23 Energy:      -590.528282  Gnorm:      2.727060  CPU:    8.660
  Cycle:     24 Energy:      -593.393994  Gnorm:      3.318500  CPU:    8.982
  Cycle:     25 Energy:      -596.591098  Gnorm:      2.945906  CPU:    9.245
  Cycle:     26 Energy:      -598.629893  Gnorm:      2.835007  CPU:    9.508
  Cycle:     27 Energy:      -600.911008  Gnorm:      2.575950  CPU:    9.837
  Cycle:     28 Energy:      -603.032495  Gnorm:      2.635929  CPU:   10.170
  Cycle:     29 Energy:      -604.913472  Gnorm:      2.340729  CPU:   10.439
  Cycle:     30 Energy:      -605.716744  Gnorm:      1.654831  CPU:   10.709
  Cycle:     31 Energy:      -606.551868  Gnorm:      1.590922  CPU:   11.046
  Cycle:     32 Energy:      -607.446274  Gnorm:      1.753676  CPU:   11.385
  Cycle:     33 Energy:      -608.589452  Gnorm:      1.723138  CPU:   11.727
  Cycle:     34 Energy:      -609.759726  Gnorm:      1.782671  CPU:   12.073
  Cycle:     35 Energy:      -610.725906  Gnorm:      1.861033  CPU:   12.354
  Cycle:     36 Energy:      -611.588473  Gnorm:      1.700601  CPU:   12.637
  Cycle:     37 Energy:      -612.810778  Gnorm:      1.934487  CPU:   12.992
  Cycle:     38 Energy:      -613.784922  Gnorm:      1.798992  CPU:   13.290
  Cycle:     39 Energy:      -614.974348  Gnorm:      2.136770  CPU:   13.655
  Cycle:     40 Energy:      -615.658397  Gnorm:      1.355528  CPU:   13.950
  Cycle:     41 Energy:      -616.288954  Gnorm:      1.552901  CPU:   14.316
  Cycle:     42 Energy:      -617.004180  Gnorm:      1.453609  CPU:   14.684
  Cycle:     43 Energy:      -617.650634  Gnorm:      1.531100  CPU:   15.055
  Cycle:     44 Energy:      -618.485454  Gnorm:      1.571430  CPU:   15.423
  Cycle:     45 Energy:      -619.317308  Gnorm:      1.596430  CPU:   15.795
  Cycle:     46 Energy:      -620.333520  Gnorm:      1.861425  CPU:   16.170
  Cycle:     47 Energy:      -621.481329  Gnorm:      1.482641  CPU:   16.473
  Cycle:     48 Energy:      -622.315700  Gnorm:      1.801899  CPU:   16.851
  Cycle:     49 Energy:      -623.316963  Gnorm:      1.925820  CPU:   17.156
  Cycle:     50 Energy:      -623.899424  Gnorm:      1.502525  CPU:   17.469
  Cycle:     51 Energy:      -624.722911  Gnorm:      1.416170  CPU:   17.848
  Cycle:     52 Energy:      -625.245849  Gnorm:      1.372529  CPU:   18.155
  Cycle:     53 Energy:      -625.818256  Gnorm:      1.259921  CPU:   18.535
  Cycle:     54 Energy:      -626.436838  Gnorm:      1.289172  CPU:   18.915
  Cycle:     55 Energy:      -626.950383  Gnorm:      1.239207  CPU:   19.221
  Cycle:     56 Energy:      -627.253715  Gnorm:      0.992469  CPU:   19.529
  Cycle:     57 Energy:      -627.563217  Gnorm:      0.946326  CPU:   19.915
  Cycle:     58 Energy:      -627.925197  Gnorm:      1.039293  CPU:   20.300
  Cycle:     59 Energy:      -628.218575  Gnorm:      0.965243  CPU:   20.613
  Cycle:     60 Energy:      -628.392295  Gnorm:      0.746165  CPU:   20.927
  Cycle:     61 Energy:      -628.601057  Gnorm:      0.818784  CPU:   21.318
  Cycle:     62 Energy:      -628.815825  Gnorm:      0.783130  CPU:   21.632
  Cycle:     63 Energy:      -629.003658  Gnorm:      0.814672  CPU:   22.030
  Cycle:     64 Energy:      -629.260038  Gnorm:      0.923771  CPU:   22.423
  Cycle:     65 Energy:      -629.617719  Gnorm:      0.925115  CPU:   22.816
  Cycle:     66 Energy:      -629.924751  Gnorm:      0.860747  CPU:   23.145
  Cycle:     67 Energy:      -630.122605  Gnorm:      0.855391  CPU:   23.468
  Cycle:     68 Energy:      -630.446717  Gnorm:      0.909513  CPU:   23.870
  Cycle:     69 Energy:      -630.762236  Gnorm:      1.075994  CPU:   24.189
  Cycle:     70 Energy:      -630.943652  Gnorm:      0.725148  CPU:   24.514
  Cycle:     71 Energy:      -631.164942  Gnorm:      0.728768  CPU:   24.836
  Cycle:     72 Energy:      -631.331123  Gnorm:      0.756483  CPU:   25.158
  Cycle:     73 Energy:      -631.527700  Gnorm:      0.640167  CPU:   25.563
  Cycle:     74 Energy:      -631.670922  Gnorm:      0.561194  CPU:   25.968
  Cycle:     75 Energy:      -631.757908  Gnorm:      0.506909  CPU:   26.301
  Cycle:     76 Energy:      -631.851849  Gnorm:      0.427755  CPU:   26.710
  Cycle:     77 Energy:      -631.947613  Gnorm:      0.542606  CPU:   27.127
  Cycle:     78 Energy:      -632.049012  Gnorm:      0.578808  CPU:   27.462
  Cycle:     79 Energy:      -632.201432  Gnorm:      0.838448  CPU:   27.876
  Cycle:     80 Energy:      -632.294567  Gnorm:      0.433565  CPU:   28.215
  Cycle:     81 Energy:      -632.374376  Gnorm:      0.497532  CPU:   28.639
  Cycle:     82 Energy:      -632.453913  Gnorm:      0.371097  CPU:   28.974
  Cycle:     83 Energy:      -632.505266  Gnorm:      0.416733  CPU:   29.404
  Cycle:     84 Energy:      -632.572707  Gnorm:      0.505049  CPU:   29.830
  Cycle:     85 Energy:      -632.680689  Gnorm:      0.509536  CPU:   30.269
  Cycle:     86 Energy:      -632.777477  Gnorm:      0.566414  CPU:   30.612
  Cycle:     87 Energy:      -632.889385  Gnorm:      0.529852  CPU:   31.025
  Cycle:     88 Energy:      -633.025483  Gnorm:      0.633994  CPU:   31.439
  Cycle:     89 Energy:      -633.186931  Gnorm:      0.775313  CPU:   31.772
  Cycle:     90 Energy:      -633.304635  Gnorm:      0.572873  CPU:   32.107
  Cycle:     91 Energy:      -633.414336  Gnorm:      0.471320  CPU:   32.532
  Cycle:     92 Energy:      -633.495628  Gnorm:      0.531536  CPU:   32.870
  Cycle:     93 Energy:      -633.575653  Gnorm:      0.450730  CPU:   33.204
  Cycle:     94 Energy:      -633.653159  Gnorm:      0.442111  CPU:   33.548
  Cycle:     95 Energy:      -633.711332  Gnorm:      0.360968  CPU:   33.881
  Cycle:     96 Energy:      -633.749554  Gnorm:      0.314104  CPU:   34.298
  Cycle:     97 Energy:      -633.804289  Gnorm:      0.422253  CPU:   34.721
  Cycle:     98 Energy:      -633.887519  Gnorm:      0.389047  CPU:   35.138
  Cycle:     99 Energy:      -634.012725  Gnorm:      0.729652  CPU:   35.559
  Cycle:    100 Energy:      -634.094062  Gnorm:      0.365698  CPU:   35.893
  Cycle:    101 Energy:      -634.132929  Gnorm:      0.379987  CPU:   36.238
  Cycle:    102 Energy:      -634.187144  Gnorm:      0.354491  CPU:   36.654
  Cycle:    103 Energy:      -634.227608  Gnorm:      0.310240  CPU:   36.988
  Cycle:    104 Energy:      -634.269729  Gnorm:      0.372366  CPU:   37.322
  Cycle:    105 Energy:      -634.326669  Gnorm:      0.425207  CPU:   37.739
  Cycle:    106 Energy:      -634.415693  Gnorm:      0.440440  CPU:   38.074
  Cycle:    107 Energy:      -634.483985  Gnorm:      0.493082  CPU:   38.410
  Cycle:    108 Energy:      -634.572909  Gnorm:      0.524105  CPU:   38.828
  Cycle:    109 Energy:      -634.730724  Gnorm:      0.646086  CPU:   39.245
  Cycle:    110 Energy:      -634.829694  Gnorm:      0.559700  CPU:   39.586
  Cycle:    111 Energy:      -634.923192  Gnorm:      0.478107  CPU:   40.003
  Cycle:    112 Energy:      -634.991933  Gnorm:      0.448871  CPU:   40.420
  Cycle:    113 Energy:      -635.059248  Gnorm:      0.406948  CPU:   40.836
  Cycle:    114 Energy:      -635.130390  Gnorm:      0.363360  CPU:   41.171
  Cycle:    115 Energy:      -635.170126  Gnorm:      0.293542  CPU:   41.507
  Cycle:    116 Energy:      -635.203011  Gnorm:      0.300796  CPU:   41.937
  Cycle:    117 Energy:      -635.242381  Gnorm:      0.364562  CPU:   42.378
  Cycle:    118 Energy:      -635.285325  Gnorm:      0.318072  CPU:   42.713
  Cycle:    119 Energy:      -635.345313  Gnorm:      0.526982  CPU:   43.132
  Cycle:    120 Energy:      -635.389987  Gnorm:      0.321153  CPU:   43.472
  Cycle:    121 Energy:      -635.427113  Gnorm:      0.327826  CPU:   43.803
  Cycle:    122 Energy:      -635.464422  Gnorm:      0.310206  CPU:   44.215
  Cycle:    123 Energy:      -635.492719  Gnorm:      0.288248  CPU:   44.545
  Cycle:    124 Energy:      -635.524706  Gnorm:      0.321538  CPU:   44.876
  Cycle:    125 Energy:      -635.572999  Gnorm:      0.378338  CPU:   45.292
  Cycle:    126 Energy:      -635.627367  Gnorm:      0.425262  CPU:   45.628
  Cycle:    127 Energy:      -635.689402  Gnorm:      0.397341  CPU:   45.963
  Cycle:    128 Energy:      -635.786465  Gnorm:      0.485175  CPU:   46.382
  Cycle:    129 Energy:      -635.886667  Gnorm:      0.581685  CPU:   46.719
  Cycle:    130 Energy:      -635.959110  Gnorm:      0.486329  CPU:   47.056
  Cycle:    131 Energy:      -636.045536  Gnorm:      0.449212  CPU:   47.393
  Cycle:    132 Energy:      -636.095102  Gnorm:      0.391423  CPU:   47.731
  Cycle:    133 Energy:      -636.157013  Gnorm:      0.375234  CPU:   48.152
  Cycle:    134 Energy:      -636.205836  Gnorm:      0.332186  CPU:   48.491
  Cycle:    135 Energy:      -636.238750  Gnorm:      0.254653  CPU:   48.831
  Cycle:    136 Energy:      -636.264296  Gnorm:      0.278086  CPU:   49.170
  Cycle:    137 Energy:      -636.294573  Gnorm:      0.297743  CPU:   49.591
  Cycle:    138 Energy:      -636.333862  Gnorm:      0.283665  CPU:   49.929
  Cycle:    139 Energy:      -636.381175  Gnorm:      0.502114  CPU:   50.345
  Cycle:    140 Energy:      -636.421222  Gnorm:      0.301302  CPU:   50.682
  Cycle:    141 Energy:      -636.451540  Gnorm:      0.291963  CPU:   51.018
  Cycle:    142 Energy:      -636.484145  Gnorm:      0.265466  CPU:   51.436
  Cycle:    143 Energy:      -636.508369  Gnorm:      0.262185  CPU:   51.772
  Cycle:    144 Energy:      -636.530373  Gnorm:      0.298347  CPU:   52.108
  Cycle:    145 Energy:      -636.572094  Gnorm:      0.319986  CPU:   52.525
  Cycle:    146 Energy:      -636.622263  Gnorm:      0.385835  CPU:   52.945
  Cycle:    147 Energy:      -636.672539  Gnorm:      0.387446  CPU:   53.282
  Cycle:    148 Energy:      -636.743685  Gnorm:      0.450050  CPU:   53.702
  Cycle:    149 Energy:      -636.824520  Gnorm:      0.483973  CPU:   54.042
  Cycle:    150 Energy:      -636.890536  Gnorm:      0.438130  CPU:   54.386
  Cycle:    151 Energy:      -636.958702  Gnorm:      0.370951  CPU:   54.722
  Cycle:    152 Energy:      -637.004677  Gnorm:      0.381559  CPU:   55.056
  Cycle:    153 Energy:      -637.052066  Gnorm:      0.324232  CPU:   55.478
  Cycle:    154 Energy:      -637.088236  Gnorm:      0.325197  CPU:   55.824
  Cycle:    155 Energy:      -637.112256  Gnorm:      0.223769  CPU:   56.154
  Cycle:    156 Energy:      -637.134898  Gnorm:      0.246243  CPU:   56.566
  Cycle:    157 Energy:      -637.161787  Gnorm:      0.290215  CPU:   56.977
  Cycle:    158 Energy:      -637.190735  Gnorm:      0.275475  CPU:   57.305
  Cycle:    159 Energy:      -637.225561  Gnorm:      0.428176  CPU:   57.635
  Cycle:    160 Energy:      -637.257408  Gnorm:      0.276603  CPU:   57.974
  Cycle:    161 Energy:      -637.283816  Gnorm:      0.272589  CPU:   58.393
  Cycle:    162 Energy:      -637.310433  Gnorm:      0.238354  CPU:   58.737
  Cycle:    163 Energy:      -637.331873  Gnorm:      0.217650  CPU:   59.068
  Cycle:    164 Energy:      -637.354593  Gnorm:      0.310401  CPU:   59.479
  Cycle:    165 Energy:      -637.388869  Gnorm:      0.306371  CPU:   59.889
  Cycle:    166 Energy:      -637.424710  Gnorm:      0.353603  CPU:   60.225
  Cycle:    167 Energy:      -637.464645  Gnorm:      0.347026  CPU:   60.634
  Cycle:    168 Energy:      -637.522135  Gnorm:      0.398613  CPU:   61.043
  Cycle:    169 Energy:      -637.578673  Gnorm:      0.442888  CPU:   61.372
  Cycle:    170 Energy:      -637.624487  Gnorm:      0.334378  CPU:   61.703
  Cycle:    171 Energy:      -637.658685  Gnorm:      0.279298  CPU:   62.124
  Cycle:    172 Energy:      -637.691024  Gnorm:      0.269016  CPU:   62.452
  Cycle:    173 Energy:      -637.712800  Gnorm:      0.255274  CPU:   62.782
  Cycle:    174 Energy:      -637.743529  Gnorm:      0.260342  CPU:   63.111
  Cycle:    175 Energy:      -637.764584  Gnorm:      0.252861  CPU:   63.446
  Cycle:    176 Energy:      -637.791369  Gnorm:      0.261597  CPU:   63.865
  Cycle:    177 Energy:      -637.821356  Gnorm:      0.333319  CPU:   64.272
  Cycle:    178 Energy:      -637.858626  Gnorm:      0.279029  CPU:   64.608
  Cycle:    179 Energy:      -637.893848  Gnorm:      0.466823  CPU:   65.010
  Cycle:    180 Energy:      -637.923569  Gnorm:      0.267904  CPU:   65.333
  Cycle:    181 Energy:      -637.954620  Gnorm:      0.305010  CPU:   65.730
  Cycle:    182 Energy:      -637.987587  Gnorm:      0.251987  CPU:   66.050
  Cycle:    183 Energy:      -638.009346  Gnorm:      0.253502  CPU:   66.376
  Cycle:    184 Energy:      -638.031529  Gnorm:      0.244309  CPU:   66.774
  Cycle:    185 Energy:      -638.059260  Gnorm:      0.256579  CPU:   67.174
  Cycle:    186 Energy:      -638.079530  Gnorm:      0.248100  CPU:   67.496
  Cycle:    187 Energy:      -638.106617  Gnorm:      0.282332  CPU:   67.818
  Cycle:    188 Energy:      -638.140444  Gnorm:      0.306133  CPU:   68.220
  Cycle:    189 Energy:      -638.187949  Gnorm:      0.462628  CPU:   68.627
  Cycle:    190 Energy:      -638.227529  Gnorm:      0.307057  CPU:   68.951
  Cycle:    191 Energy:      -638.263647  Gnorm:      0.253633  CPU:   69.273
  Cycle:    192 Energy:      -638.288980  Gnorm:      0.265584  CPU:   69.595
  Cycle:    193 Energy:      -638.310468  Gnorm:      0.245605  CPU:   69.921
  Cycle:    194 Energy:      -638.333417  Gnorm:      0.258406  CPU:   70.327
  Cycle:    195 Energy:      -638.353578  Gnorm:      0.232845  CPU:   70.649
  Cycle:    196 Energy:      -638.371108  Gnorm:      0.232360  CPU:   70.970
  Cycle:    197 Energy:      -638.400649  Gnorm:      0.276757  CPU:   71.368
  Cycle:    198 Energy:      -638.432795  Gnorm:      0.263874  CPU:   71.686
  Cycle:    199 Energy:      -638.461762  Gnorm:      0.396877  CPU:   72.083
  Cycle:    200 Energy:      -638.486789  Gnorm:      0.267873  CPU:   72.400
  Cycle:    201 Energy:      -638.517756  Gnorm:      0.255686  CPU:   72.718
  Cycle:    202 Energy:      -638.546440  Gnorm:      0.230570  CPU:   73.035
  Cycle:    203 Energy:      -638.563974  Gnorm:      0.212570  CPU:   73.353
  Cycle:    204 Energy:      -638.585041  Gnorm:      0.257025  CPU:   73.748
  Cycle:    205 Energy:      -638.606341  Gnorm:      0.220997  CPU:   74.066
  Cycle:    206 Energy:      -638.628816  Gnorm:      0.258382  CPU:   74.465
  Cycle:    207 Energy:      -638.648178  Gnorm:      0.261899  CPU:   74.784
  Cycle:    208 Energy:      -638.678661  Gnorm:      0.292257  CPU:   75.183
  Cycle:    209 Energy:      -638.717046  Gnorm:      0.429995  CPU:   75.581
  Cycle:    210 Energy:      -638.752113  Gnorm:      0.289951  CPU:   75.900
  Cycle:    211 Energy:      -638.781323  Gnorm:      0.244462  CPU:   76.298
  Cycle:    212 Energy:      -638.800655  Gnorm:      0.253171  CPU:   76.618
  Cycle:    213 Energy:      -638.820227  Gnorm:      0.217237  CPU:   76.938
  Cycle:    214 Energy:      -638.838092  Gnorm:      0.239311  CPU:   77.258
  Cycle:    215 Energy:      -638.858284  Gnorm:      0.202040  CPU:   77.578
  Cycle:    216 Energy:      -638.875288  Gnorm:      0.228569  CPU:   77.896
  Cycle:    217 Energy:      -638.899213  Gnorm:      0.255729  CPU:   78.290
  Cycle:    218 Energy:      -638.928647  Gnorm:      0.239461  CPU:   78.605
  Cycle:    219 Energy:      -638.954985  Gnorm:      0.365824  CPU:   78.920
  Cycle:    220 Energy:      -638.978186  Gnorm:      0.254251  CPU:   79.236
  Cycle:    221 Energy:      -639.002146  Gnorm:      0.254408  CPU:   79.550
  Cycle:    222 Energy:      -639.026569  Gnorm:      0.222005  CPU:   79.866
  Cycle:    223 Energy:      -639.044402  Gnorm:      0.197208  CPU:   80.181
  Cycle:    224 Energy:      -639.059757  Gnorm:      0.241213  CPU:   80.498
  Cycle:    225 Energy:      -639.078261  Gnorm:      0.210004  CPU:   80.814
  Cycle:    226 Energy:      -639.093800  Gnorm:      0.224344  CPU:   81.132
  Cycle:    227 Energy:      -639.113439  Gnorm:      0.226431  CPU:   81.529
  Cycle:    228 Energy:      -639.135946  Gnorm:      0.260191  CPU:   81.852
  Cycle:    229 Energy:      -639.170601  Gnorm:      0.347037  CPU:   82.251
  Cycle:    230 Energy:      -639.201600  Gnorm:      0.259387  CPU:   82.571
  Cycle:    231 Energy:      -639.222306  Gnorm:      0.225251  CPU:   82.899
  Cycle:    232 Energy:      -639.238016  Gnorm:      0.230784  CPU:   83.221
  Cycle:    233 Energy:      -639.254202  Gnorm:      0.182023  CPU:   83.625
  Cycle:    234 Energy:      -639.271841  Gnorm:      0.215627  CPU:   83.944
  Cycle:    235 Energy:      -639.286399  Gnorm:      0.196473  CPU:   84.262
  Cycle:    236 Energy:      -639.303468  Gnorm:      0.216073  CPU:   84.662
  Cycle:    237 Energy:      -639.325418  Gnorm:      0.244759  CPU:   85.057
  Cycle:    238 Energy:      -639.350684  Gnorm:      0.217875  CPU:   85.372
  Cycle:    239 Energy:      -639.378061  Gnorm:      0.431465  CPU:   85.763
  Cycle:    240 Energy:      -639.403973  Gnorm:      0.220592  CPU:   86.077
  Cycle:    241 Energy:      -639.423871  Gnorm:      0.252994  CPU:   86.394
  Cycle:    242 Energy:      -639.443265  Gnorm:      0.219359  CPU:   86.710
  Cycle:    243 Energy:      -639.459552  Gnorm:      0.188213  CPU:   87.026
  Cycle:    244 Energy:      -639.472963  Gnorm:      0.195031  CPU:   87.346
  Cycle:    245 Energy:      -639.490564  Gnorm:      0.188831  CPU:   87.740
  Cycle:    246 Energy:      -639.502408  Gnorm:      0.201187  CPU:   88.058
  Cycle:    247 Energy:      -639.519058  Gnorm:      0.203281  CPU:   88.452
  Cycle:    248 Energy:      -639.535220  Gnorm:      0.241878  CPU:   88.847
  Cycle:    249 Energy:      -639.560621  Gnorm:      0.290889  CPU:   89.241
  Cycle:    250 Energy:      -639.580282  Gnorm:      0.254422  CPU:   89.556
  Cycle:    251 Energy:      -639.599319  Gnorm:      0.193138  CPU:   89.872
  Cycle:    252 Energy:      -639.613509  Gnorm:      0.217293  CPU:   90.187
  Cycle:    253 Energy:      -639.627776  Gnorm:      0.176626  CPU:   90.502
  Cycle:    254 Energy:      -639.642267  Gnorm:      0.194072  CPU:   90.893
  Cycle:    255 Energy:      -639.655051  Gnorm:      0.179828  CPU:   91.209
  Cycle:    256 Energy:      -639.666507  Gnorm:      0.185529  CPU:   91.604
  Cycle:    257 Energy:      -639.687179  Gnorm:      0.229888  CPU:   91.996
  Cycle:    258 Energy:      -639.702447  Gnorm:      0.214923  CPU:   92.313
  Cycle:    259 Energy:      -639.725162  Gnorm:      0.328841  CPU:   92.629
  Cycle:    260 Energy:      -639.743900  Gnorm:      0.212649  CPU:   92.945
  Cycle:    261 Energy:      -639.759287  Gnorm:      0.206025  CPU:   93.259
  Cycle:    262 Energy:      -639.776749  Gnorm:      0.197821  CPU:   93.649
  Cycle:    263 Energy:      -639.788045  Gnorm:      0.161168  CPU:   93.962
  Cycle:    264 Energy:      -639.799706  Gnorm:      0.192059  CPU:   94.275
  Cycle:    265 Energy:      -639.813570  Gnorm:      0.168478  CPU:   94.588
  Cycle:    266 Energy:      -639.825598  Gnorm:      0.198442  CPU:   94.902
  Cycle:    267 Energy:      -639.839208  Gnorm:      0.189117  CPU:   95.216
  Cycle:    268 Energy:      -639.853811  Gnorm:      0.230190  CPU:   95.607
  Cycle:    269 Energy:      -639.874708  Gnorm:      0.285835  CPU:   95.997
  Cycle:    270 Energy:      -639.891221  Gnorm:      0.222213  CPU:   96.310
  Cycle:    271 Energy:      -639.907134  Gnorm:      0.187451  CPU:   96.623
  Cycle:    272 Energy:      -639.918435  Gnorm:      0.180795  CPU:   96.936
  Cycle:    273 Energy:      -639.929946  Gnorm:      0.173873  CPU:   97.250
  Cycle:    274 Energy:      -639.941190  Gnorm:      0.165668  CPU:   97.563
  Cycle:    275 Energy:      -639.952709  Gnorm:      0.174078  CPU:   97.882
  Cycle:    276 Energy:      -639.962997  Gnorm:      0.168799  CPU:   98.200
  Cycle:    277 Energy:      -639.977887  Gnorm:      0.212711  CPU:   98.598
  Cycle:    278 Energy:      -639.994473  Gnorm:      0.195587  CPU:   98.917
  Cycle:    279 Energy:      -640.007804  Gnorm:      0.266596  CPU:   99.230
  Cycle:    280 Energy:      -640.019334  Gnorm:      0.181812  CPU:   99.549
  Cycle:    281 Energy:      -640.035516  Gnorm:      0.202109  CPU:   99.862
  Cycle:    282 Energy:      -640.048529  Gnorm:      0.163612  CPU:  100.191
  Cycle:    283 Energy:      -640.057892  Gnorm:      0.164607  CPU:  100.516
  Cycle:    284 Energy:      -640.068767  Gnorm:      0.163406  CPU:  100.845
  Cycle:    285 Energy:      -640.079377  Gnorm:      0.164888  CPU:  101.161
  Cycle:    286 Energy:      -640.089518  Gnorm:      0.176940  CPU:  101.479
  Cycle:    287 Energy:      -640.099642  Gnorm:      0.174737  CPU:  101.796
  Cycle:    288 Energy:      -640.113966  Gnorm:      0.220427  CPU:  102.193
  Cycle:    289 Energy:      -640.131126  Gnorm:      0.266767  CPU:  102.522
  Cycle:    290 Energy:      -640.147220  Gnorm:      0.213280  CPU:  102.842
  Cycle:    291 Energy:      -640.161106  Gnorm:      0.171040  CPU:  103.158
  Cycle:    292 Energy:      -640.170421  Gnorm:      0.170295  CPU:  103.474
  Cycle:    293 Energy:      -640.180338  Gnorm:      0.162412  CPU:  103.790
  Cycle:    294 Energy:      -640.190184  Gnorm:      0.155068  CPU:  104.106
  Cycle:    295 Energy:      -640.199771  Gnorm:      0.157380  CPU:  104.422
  Cycle:    296 Energy:      -640.208429  Gnorm:      0.155908  CPU:  104.736
  Cycle:    297 Energy:      -640.220125  Gnorm:      0.190876  CPU:  105.127
  Cycle:    298 Energy:      -640.235057  Gnorm:      0.172931  CPU:  105.439
  Cycle:    299 Energy:      -640.245060  Gnorm:      0.243084  CPU:  105.752
  Cycle:    300 Energy:      -640.254420  Gnorm:      0.165318  CPU:  106.065
  Cycle:    301 Energy:      -640.268649  Gnorm:      0.184211  CPU:  106.379
  Cycle:    302 Energy:      -640.279249  Gnorm:      0.149108  CPU:  106.693
  Cycle:    303 Energy:      -640.287173  Gnorm:      0.152319  CPU:  107.008
  Cycle:    304 Energy:      -640.296388  Gnorm:      0.151468  CPU:  107.322
  Cycle:    305 Energy:      -640.305746  Gnorm:      0.158241  CPU:  107.638
  Cycle:    306 Energy:      -640.314698  Gnorm:      0.164751  CPU:  107.953
  Cycle:    307 Energy:      -640.323305  Gnorm:      0.161375  CPU:  108.269
  Cycle:    308 Energy:      -640.336192  Gnorm:      0.208468  CPU:  108.585
  Cycle:    309 Energy:      -640.352074  Gnorm:      0.253422  CPU:  108.901
  Cycle:    310 Energy:      -640.367274  Gnorm:      0.202034  CPU:  109.218
  Cycle:    311 Energy:      -640.379482  Gnorm:      0.157264  CPU:  109.535
  Cycle:    312 Energy:      -640.387510  Gnorm:      0.160351  CPU:  109.852
  Cycle:    313 Energy:      -640.396252  Gnorm:      0.154515  CPU:  110.168
  Cycle:    314 Energy:      -640.405066  Gnorm:      0.146105  CPU:  110.485
  Cycle:    315 Energy:      -640.413415  Gnorm:      0.145863  CPU:  110.801
  Cycle:    316 Energy:      -640.420740  Gnorm:      0.144358  CPU:  111.117
  Cycle:    317 Energy:      -640.430825  Gnorm:      0.176875  CPU:  111.509
  Cycle:    318 Energy:      -640.443879  Gnorm:      0.157778  CPU:  111.904
  Cycle:    319 Energy:      -640.452365  Gnorm:      0.228395  CPU:  112.220
  Cycle:    320 Energy:      -640.460318  Gnorm:      0.150364  CPU:  112.535
  Cycle:    321 Energy:      -640.472765  Gnorm:      0.170857  CPU:  112.851
  Cycle:    322 Energy:      -640.481953  Gnorm:      0.138060  CPU:  113.165
  Cycle:    323 Energy:      -640.488658  Gnorm:      0.141634  CPU:  113.481
  Cycle:    324 Energy:      -640.496928  Gnorm:      0.143098  CPU:  113.796
  Cycle:    325 Energy:      -640.505587  Gnorm:      0.149866  CPU:  114.114
  Cycle:    326 Energy:      -640.514059  Gnorm:      0.155583  CPU:  114.434
  Cycle:    327 Energy:      -640.521524  Gnorm:      0.153738  CPU:  114.754
  Cycle:    328 Energy:      -640.533327  Gnorm:      0.202894  CPU:  115.145
  Cycle:    329 Energy:      -640.548450  Gnorm:      0.250313  CPU:  115.461
  Cycle:    330 Energy:      -640.562897  Gnorm:      0.195965  CPU:  115.776
  Cycle:    331 Energy:      -640.573910  Gnorm:      0.148537  CPU:  116.090
  Cycle:    332 Energy:      -640.580783  Gnorm:      0.152089  CPU:  116.405
  Cycle:    333 Energy:      -640.589268  Gnorm:      0.146579  CPU:  116.719
  Cycle:    334 Energy:      -640.597657  Gnorm:      0.140854  CPU:  117.033
  Cycle:    335 Energy:      -640.605459  Gnorm:      0.135853  CPU:  117.347
  Cycle:    336 Energy:      -640.611515  Gnorm:      0.135603  CPU:  117.661
  Cycle:    337 Energy:      -640.620575  Gnorm:      0.167441  CPU:  118.051
  Cycle:    338 Energy:      -640.632276  Gnorm:      0.149512  CPU:  118.368
  Cycle:    339 Energy:      -640.639804  Gnorm:      0.212453  CPU:  118.686
  Cycle:    340 Energy:      -640.646719  Gnorm:      0.140673  CPU:  119.004
  Cycle:    341 Energy:      -640.657927  Gnorm:      0.162780  CPU:  119.321
  Cycle:    342 Energy:      -640.666141  Gnorm:      0.130045  CPU:  119.639
  Cycle:    343 Energy:      -640.671689  Gnorm:      0.131936  CPU:  119.957
  Cycle:    344 Energy:      -640.679614  Gnorm:      0.139498  CPU:  120.275
  Cycle:    345 Energy:      -640.687908  Gnorm:      0.144538  CPU:  120.593
  Cycle:    346 Energy:      -640.696208  Gnorm:      0.151106  CPU:  120.911
  Cycle:    347 Energy:      -640.702851  Gnorm:      0.145770  CPU:  121.230
  Cycle:    348 Energy:      -640.713842  Gnorm:      0.198436  CPU:  121.625
  Cycle:    349 Energy:      -640.729017  Gnorm:      0.252475  CPU:  122.020
  Cycle:    350 Energy:      -640.743449  Gnorm:      0.191115  CPU:  122.338
  Cycle:    351 Energy:      -640.753536  Gnorm:      0.139871  CPU:  122.657
  Cycle:    352 Energy:      -640.759567  Gnorm:      0.147000  CPU:  122.976
  Cycle:    353 Energy:      -640.767924  Gnorm:      0.141430  CPU:  123.294
  Cycle:    354 Energy:      -640.776318  Gnorm:      0.140261  CPU:  123.612
  Cycle:    355 Energy:      -640.784094  Gnorm:      0.125487  CPU:  123.930
  Cycle:    356 Energy:      -640.789069  Gnorm:      0.131057  CPU:  124.259
  Cycle:    357 Energy:      -640.797450  Gnorm:      0.162575  CPU:  124.653
  Cycle:    358 Energy:      -640.808448  Gnorm:      0.143690  CPU:  124.972
  Cycle:    359 Energy:      -640.815735  Gnorm:      0.207307  CPU:  125.289
  Cycle:    360 Energy:      -640.822255  Gnorm:      0.133224  CPU:  125.607
  Cycle:    361 Energy:      -640.832842  Gnorm:      0.159012  CPU:  125.925
  Cycle:    362 Energy:      -640.840359  Gnorm:      0.125839  CPU:  126.243
  Cycle:    363 Energy:      -640.844969  Gnorm:      0.121690  CPU:  126.561
  Cycle:    364 Energy:      -640.853086  Gnorm:      0.139413  CPU:  126.879
  Cycle:    365 Energy:      -640.861521  Gnorm:      0.140647  CPU:  127.197
  Cycle:    366 Energy:      -640.870020  Gnorm:      0.146651  CPU:  127.516
  Cycle:    367 Energy:      -640.875944  Gnorm:      0.139935  CPU:  127.835
  Cycle:    368 Energy:      -640.886656  Gnorm:      0.196657  CPU:  128.229
  Cycle:    369 Energy:      -640.902303  Gnorm:      0.266358  CPU:  128.620
  Cycle:    370 Energy:      -640.916946  Gnorm:      0.190354  CPU:  128.934
  Cycle:    371 Energy:      -640.926562  Gnorm:      0.132984  CPU:  129.248
  Cycle:    372 Energy:      -640.931810  Gnorm:      0.139917  CPU:  129.562
  Cycle:    373 Energy:      -640.940592  Gnorm:      0.137582  CPU:  129.875
  Cycle:    374 Energy:      -640.949683  Gnorm:      0.144721  CPU:  130.190
  Cycle:    375 Energy:      -640.957934  Gnorm:      0.110488  CPU:  130.503
  Cycle:    376 Energy:      -640.962171  Gnorm:      0.133914  CPU:  130.817
  Cycle:    377 Energy:      -640.969877  Gnorm:      0.161305  CPU:  131.130
  Cycle:    378 Energy:      -640.981583  Gnorm:      0.130478  CPU:  131.453
  Cycle:    379 Energy:      -640.997116  Gnorm:      0.306198  CPU:  131.855
  Cycle:    380 Energy:      -641.009245  Gnorm:      0.142991  CPU:  132.180
  Cycle:    381 Energy:      -641.020682  Gnorm:      0.143067  CPU:  132.498
  Cycle:    382 Energy:      -641.026649  Gnorm:      0.146247  CPU:  132.819
  Cycle:    383 Energy:      -641.033555  Gnorm:      0.109389  CPU:  133.135
  Cycle:    384 Energy:      -641.039522  Gnorm:      0.132054  CPU:  133.533
  Cycle:    385 Energy:      -641.049105  Gnorm:      0.166477  CPU:  133.854
  Cycle:    386 Energy:      -641.058742  Gnorm:      0.126126  CPU:  134.177
  Cycle:    387 Energy:      -641.065141  Gnorm:      0.150383  CPU:  134.498
  Cycle:    388 Energy:      -641.073244  Gnorm:      0.146927  CPU:  134.828
  Cycle:    389 Energy:      -641.082647  Gnorm:      0.223738  CPU:  135.234
  Cycle:    390 Energy:      -641.090328  Gnorm:      0.135172  CPU:  135.678
  Cycle:    391 Energy:      -641.098074  Gnorm:      0.141828  CPU:  136.121
  Cycle:    392 Energy:      -641.103511  Gnorm:      0.119601  CPU:  136.468
  Cycle:    393 Energy:      -641.111083  Gnorm:      0.156535  CPU:  136.875
  Cycle:    394 Energy:      -641.120878  Gnorm:      0.131214  CPU:  137.207
  Cycle:    395 Energy:      -641.126819  Gnorm:      0.122905  CPU:  137.543
  Cycle:    396 Energy:      -641.132372  Gnorm:      0.145009  CPU:  137.870
  Cycle:    397 Energy:      -641.141487  Gnorm:      0.152194  CPU:  138.188
  Cycle:    398 Energy:      -641.150110  Gnorm:      0.162252  CPU:  138.539
  Cycle:    399 Energy:      -641.161022  Gnorm:      0.192870  CPU:  138.949
  Cycle:    400 Energy:      -641.170121  Gnorm:      0.153170  CPU:  139.264
  Cycle:    401 Energy:      -641.178375  Gnorm:      0.135497  CPU:  139.677
  Cycle:    402 Energy:      -641.185478  Gnorm:      0.126597  CPU:  140.045
  Cycle:    403 Energy:      -641.191031  Gnorm:      0.113788  CPU:  140.372
  Cycle:    404 Energy:      -641.195575  Gnorm:      0.136432  CPU:  140.699
  Cycle:    405 Energy:      -641.205528  Gnorm:      0.180080  CPU:  141.147
  Cycle:    406 Energy:      -641.216195  Gnorm:      0.144614  CPU:  141.488
  Cycle:    407 Energy:      -641.222084  Gnorm:      0.129724  CPU:  141.813
  Cycle:    408 Energy:      -641.232522  Gnorm:      0.146657  CPU:  142.225
  Cycle:    409 Energy:      -641.243471  Gnorm:      0.250224  CPU:  142.579
  Cycle:    410 Energy:      -641.252751  Gnorm:      0.145517  CPU:  142.900
  Cycle:    411 Energy:      -641.261122  Gnorm:      0.143441  CPU:  143.235
  Cycle:    412 Energy:      -641.266307  Gnorm:      0.113236  CPU:  143.603
  Cycle:    413 Energy:      -641.274629  Gnorm:      0.162107  CPU:  144.053
  Cycle:    414 Energy:      -641.286206  Gnorm:      0.131798  CPU:  144.386
  Cycle:    415 Energy:      -641.291567  Gnorm:      0.113581  CPU:  144.705
  Cycle:    416 Energy:      -641.297814  Gnorm:      0.141702  CPU:  145.028
  Cycle:    417 Energy:      -641.306214  Gnorm:      0.146136  CPU:  145.367
  Cycle:    418 Energy:      -641.314292  Gnorm:      0.149281  CPU:  145.758
  Cycle:    419 Energy:      -641.322478  Gnorm:      0.196283  CPU:  146.282
  Cycle:    420 Energy:      -641.329512  Gnorm:      0.137962  CPU:  146.844
  Cycle:    421 Energy:      -641.335427  Gnorm:      0.116376  CPU:  147.416
  Cycle:    422 Energy:      -641.340938  Gnorm:      0.122933  CPU:  148.017
  Cycle:    423 Energy:      -641.346390  Gnorm:      0.103830  CPU:  148.517
  Cycle:    424 Energy:      -641.350206  Gnorm:      0.117047  CPU:  148.936
  Cycle:    425 Energy:      -641.365649  Gnorm:      0.197644  CPU:  149.661
  Cycle:    426 Energy:      -641.382546  Gnorm:      0.145444  CPU:  150.123
  Cycle:    427 Energy:      -641.389959  Gnorm:      0.168241  CPU:  150.573
  Cycle:    428 Energy:      -641.400634  Gnorm:      0.171228  CPU:  151.012
  Cycle:    429 Energy:      -641.417462  Gnorm:      0.282627  CPU:  151.455
  Cycle:    430 Energy:      -641.428672  Gnorm:      0.139937  CPU:  151.794
  Cycle:    431 Energy:      -641.436054  Gnorm:      0.133266  CPU:  152.116
  Cycle:    432 Energy:      -641.439857  Gnorm:      0.091672  CPU:  152.437
  Cycle:    433 Energy:      -641.447364  Gnorm:      0.172821  CPU:  152.754
  Cycle:    434 Energy:      -641.462262  Gnorm:      0.167796  CPU:  153.153
  Cycle:    435 Energy:      -641.467536  Gnorm:      0.103095  CPU:  153.469
  Cycle:    436 Energy:      -641.472148  Gnorm:      0.125399  CPU:  153.828
  Cycle:    437 Energy:      -641.479673  Gnorm:      0.162544  CPU:  154.144
  Cycle:    438 Energy:      -641.489485  Gnorm:      0.149119  CPU:  154.459
  Cycle:    439 Energy:      -641.497186  Gnorm:      0.168122  CPU:  154.775
  Cycle:    440 Energy:      -641.502114  Gnorm:      0.116021  CPU:  155.092
  Cycle:    441 Energy:      -641.508757  Gnorm:      0.119609  CPU:  155.410
  Cycle:    442 Energy:      -641.513408  Gnorm:      0.109216  CPU:  155.729
  Cycle:    443 Energy:      -641.516526  Gnorm:      0.084163  CPU:  156.045
  Cycle:    444 Energy:      -641.519511  Gnorm:      0.124423  CPU:  156.365
  Cycle:    445 Energy:      -641.541205  Gnorm:      0.290735  CPU:  156.758
  Cycle:    446 Energy:      -641.579568  Gnorm:      0.252662  CPU:  157.095
  Cycle:    447 Energy:      -641.592128  Gnorm:      0.162964  CPU:  157.413
  Cycle:    448 Energy:      -641.601113  Gnorm:      0.183632  CPU:  157.822
  Cycle:    449 Energy:      -641.617284  Gnorm:      0.233136  CPU:  158.143
  Cycle:    450 Energy:      -641.625058  Gnorm:      0.109651  CPU:  158.458
  Cycle:    451 Energy:      -641.630723  Gnorm:      0.113028  CPU:  158.773
  Cycle:    452 Energy:      -641.634203  Gnorm:      0.112899  CPU:  159.089
  Cycle:    453 Energy:      -641.643652  Gnorm:      0.174551  CPU:  159.405
  Cycle:    454 Energy:      -641.654107  Gnorm:      0.168690  CPU:  159.720
  Cycle:    455 Energy:      -641.663390  Gnorm:      0.144824  CPU:  160.037
  Cycle:    456 Energy:      -641.669951  Gnorm:      0.126003  CPU:  160.352
  Cycle:    457 Energy:      -641.676300  Gnorm:      0.159918  CPU:  160.668
  Cycle:    458 Energy:      -641.688034  Gnorm:      0.178417  CPU:  161.088
  Cycle:    459 Energy:      -641.699653  Gnorm:      0.215173  CPU:  161.502
  Cycle:    460 Energy:      -641.707286  Gnorm:      0.133780  CPU:  161.853
  Cycle:    461 Energy:      -641.714810  Gnorm:      0.131156  CPU:  162.185
  Cycle:    462 Energy:      -641.720272  Gnorm:      0.127346  CPU:  162.529
  Cycle:    463 Energy:      -641.726175  Gnorm:      0.124505  CPU:  162.849
  Cycle:    464 Energy:      -641.731496  Gnorm:      0.139834  CPU:  163.198
  Cycle:    465 Energy:      -641.742539  Gnorm:      0.171218  CPU:  163.652
  Cycle:    466 Energy:      -641.754848  Gnorm:      0.150066  CPU:  164.028
  Cycle:    467 Energy:      -641.762261  Gnorm:      0.180540  CPU:  164.373
  Cycle:    468 Energy:      -641.774378  Gnorm:      0.136152  CPU:  164.706
  Cycle:    469 Energy:      -641.784200  Gnorm:      0.190146  CPU:  165.103
  Cycle:    470 Energy:      -641.790751  Gnorm:      0.122171  CPU:  165.422
  Cycle:    471 Energy:      -641.800383  Gnorm:      0.163057  CPU:  165.740
  Cycle:    472 Energy:      -641.809940  Gnorm:      0.165388  CPU:  166.112
  Cycle:    473 Energy:      -641.817655  Gnorm:      0.168907  CPU:  166.457
  Cycle:    474 Energy:      -641.831458  Gnorm:      0.135625  CPU:  166.773
  Cycle:    475 Energy:      -641.837027  Gnorm:      0.139329  CPU:  167.088
  Cycle:    476 Energy:      -641.844843  Gnorm:      0.131128  CPU:  167.481
  Cycle:    477 Energy:      -641.850851  Gnorm:      0.131830  CPU:  167.796
  Cycle:    478 Energy:      -641.856403  Gnorm:      0.137377  CPU:  168.112
  Cycle:    479 Energy:      -641.865733  Gnorm:      0.184081  CPU:  168.504
  Cycle:    480 Energy:      -641.872772  Gnorm:      0.124816  CPU:  168.819
  Cycle:    481 Energy:      -641.876930  Gnorm:      0.106776  CPU:  169.134
  Cycle:    482 Energy:      -641.882051  Gnorm:      0.133216  CPU:  169.448
  Cycle:    483 Energy:      -641.890543  Gnorm:      0.153255  CPU:  169.841
  Cycle:    484 Energy:      -641.896973  Gnorm:      0.139278  CPU:  170.157
  Cycle:    485 Energy:      -641.909239  Gnorm:      0.170145  CPU:  170.474
  Cycle:    486 Energy:      -641.920022  Gnorm:      0.160721  CPU:  170.791
  Cycle:    487 Energy:      -641.928520  Gnorm:      0.176593  CPU:  171.109
  Cycle:    488 Energy:      -641.940515  Gnorm:      0.160930  CPU:  171.427
  Cycle:    489 Energy:      -641.950408  Gnorm:      0.180852  CPU:  171.829
  Cycle:    490 Energy:      -641.957849  Gnorm:      0.141553  CPU:  172.147
  Cycle:    491 Energy:      -641.967179  Gnorm:      0.173833  CPU:  172.465
  Cycle:    492 Energy:      -641.975283  Gnorm:      0.151856  CPU:  172.783
  Cycle:    493 Energy:      -641.985708  Gnorm:      0.173321  CPU:  173.100
  Cycle:    494 Energy:      -641.998332  Gnorm:      0.150412  CPU:  173.418
  Cycle:    495 Energy:      -642.004714  Gnorm:      0.142733  CPU:  173.735
  Cycle:    496 Energy:      -642.013417  Gnorm:      0.147456  CPU:  174.052
  Cycle:    497 Energy:      -642.020041  Gnorm:      0.126192  CPU:  174.371
  Cycle:    498 Energy:      -642.025350  Gnorm:      0.118244  CPU:  174.686
  Cycle:    499 Energy:      -642.032061  Gnorm:      0.161459  CPU:  175.079
  Cycle:    500 Energy:      -642.037885  Gnorm:      0.117810  CPU:  175.395
  Cycle:    501 Energy:      -642.041637  Gnorm:      0.112761  CPU:  175.711
  Cycle:    502 Energy:      -642.047760  Gnorm:      0.141179  CPU:  176.027
  Cycle:    503 Energy:      -642.058001  Gnorm:      0.139518  CPU:  176.344
  Cycle:    504 Energy:      -642.064852  Gnorm:      0.152982  CPU:  176.661
  Cycle:    505 Energy:      -642.077143  Gnorm:      0.180076  CPU:  177.056
  Cycle:    506 Energy:      -642.087945  Gnorm:      0.161647  CPU:  177.374
  Cycle:    507 Energy:      -642.096510  Gnorm:      0.168275  CPU:  177.693
  Cycle:    508 Energy:      -642.107106  Gnorm:      0.147739  CPU:  178.090
  Cycle:    509 Energy:      -642.116903  Gnorm:      0.216391  CPU:  178.408
  Cycle:    510 Energy:      -642.125192  Gnorm:      0.138191  CPU:  178.726
  Cycle:    511 Energy:      -642.133230  Gnorm:      0.164104  CPU:  179.044
  Cycle:    512 Energy:      -642.141289  Gnorm:      0.144483  CPU:  179.362
  Cycle:    513 Energy:      -642.150357  Gnorm:      0.171706  CPU:  179.681
  Cycle:    514 Energy:      -642.162594  Gnorm:      0.172252  CPU:  180.077
  Cycle:    515 Energy:      -642.170516  Gnorm:      0.132842  CPU:  180.399
  Cycle:    516 Energy:      -642.180046  Gnorm:      0.153016  CPU:  180.795
  Cycle:    517 Energy:      -642.187451  Gnorm:      0.139198  CPU:  181.177
  Cycle:    518 Energy:      -642.193025  Gnorm:      0.123415  CPU:  181.555
  Cycle:    519 Energy:      -642.198664  Gnorm:      0.140712  CPU:  182.025
  Cycle:    520 Energy:      -642.203261  Gnorm:      0.120417  CPU:  182.358
  Cycle:    521 Energy:      -642.207981  Gnorm:      0.119516  CPU:  182.725
  Cycle:    522 Energy:      -642.214663  Gnorm:      0.159023  CPU:  183.126
  Cycle:    523 Energy:      -642.224023  Gnorm:      0.136230  CPU:  183.532
  Cycle:    524 Energy:      -642.232157  Gnorm:      0.158385  CPU:  183.943
  Cycle:    525 Energy:      -642.244611  Gnorm:      0.180377  CPU:  184.467
  Cycle:    526 Energy:      -642.253772  Gnorm:      0.148187  CPU:  184.936
  Cycle:    527 Energy:      -642.263232  Gnorm:      0.161030  CPU:  185.291
  Cycle:    528 Energy:      -642.271582  Gnorm:      0.154339  CPU:  185.633
  Cycle:    529 Energy:      -642.280650  Gnorm:      0.211588  CPU:  185.955
  Cycle:    530 Energy:      -642.288641  Gnorm:      0.143263  CPU:  186.320
  Cycle:    531 Energy:      -642.295222  Gnorm:      0.138673  CPU:  186.705
  Cycle:    532 Energy:      -642.302722  Gnorm:      0.134813  CPU:  187.041
  Cycle:    533 Energy:      -642.309015  Gnorm:      0.157901  CPU:  187.616
  Cycle:    534 Energy:      -642.323299  Gnorm:      0.159789  CPU:  188.606
  Cycle:    535 Energy:      -642.330793  Gnorm:      0.140986  CPU:  189.067
  Cycle:    536 Energy:      -642.341838  Gnorm:      0.162126  CPU:  189.404
  Cycle:    537 Energy:      -642.351610  Gnorm:      0.128748  CPU:  189.727
  Cycle:    538 Energy:      -642.358263  Gnorm:      0.115984  CPU:  190.127
  Cycle:    539 Energy:      -642.368780  Gnorm:      0.278451  CPU:  190.531
  Cycle:    540 Energy:      -642.377809  Gnorm:      0.120201  CPU:  190.904
  Cycle:    541 Energy:      -642.384521  Gnorm:      0.125191  CPU:  191.221
  Cycle:    542 Energy:      -642.392049  Gnorm:      0.158724  CPU:  191.567
  Cycle:    543 Energy:      -642.402330  Gnorm:      0.170325  CPU:  191.945
  Cycle:    544 Energy:      -642.409711  Gnorm:      0.147209  CPU:  192.340
  Cycle:    545 Energy:      -642.421506  Gnorm:      0.178198  CPU:  192.774
  Cycle:    546 Energy:      -642.431346  Gnorm:      0.135678  CPU:  193.115
  Cycle:    547 Energy:      -642.439749  Gnorm:      0.144495  CPU:  193.537
  Cycle:    548 Energy:      -642.446182  Gnorm:      0.135431  CPU:  193.859
  Cycle:    549 Energy:      -642.453562  Gnorm:      0.175451  CPU:  194.272
  Cycle:    550 Energy:      -642.459300  Gnorm:      0.128798  CPU:  194.637
  Cycle:    551 Energy:      -642.464996  Gnorm:      0.129873  CPU:  195.015
  Cycle:    552 Energy:      -642.472442  Gnorm:      0.134951  CPU:  195.389
  Cycle:    553 Energy:      -642.479489  Gnorm:      0.165159  CPU:  195.718
  Cycle:    554 Energy:      -642.492416  Gnorm:      0.172777  CPU:  196.143
  Cycle:    555 Energy:      -642.499863  Gnorm:      0.149632  CPU:  196.533
  Cycle:    556 Energy:      -642.510897  Gnorm:      0.155672  CPU:  197.034
  Cycle:    557 Energy:      -642.519733  Gnorm:      0.148130  CPU:  197.430
  Cycle:    558 Energy:      -642.528504  Gnorm:      0.133587  CPU:  197.905
  Cycle:    559 Energy:      -642.537501  Gnorm:      0.197447  CPU:  198.366
  Cycle:    560 Energy:      -642.545142  Gnorm:      0.132542  CPU:  198.714
  Cycle:    561 Energy:      -642.552578  Gnorm:      0.149266  CPU:  199.037
  Cycle:    562 Energy:      -642.560486  Gnorm:      0.150656  CPU:  199.384
  Cycle:    563 Energy:      -642.569024  Gnorm:      0.164595  CPU:  199.741
  Cycle:    564 Energy:      -642.577428  Gnorm:      0.154791  CPU:  200.084
  Cycle:    565 Energy:      -642.589344  Gnorm:      0.183162  CPU:  200.534
  Cycle:    566 Energy:      -642.599038  Gnorm:      0.140394  CPU:  200.900
  Cycle:    567 Energy:      -642.607655  Gnorm:      0.128587  CPU:  201.440
  Cycle:    568 Energy:      -642.614545  Gnorm:      0.128579  CPU:  202.047
  Cycle:    569 Energy:      -642.620343  Gnorm:      0.171135  CPU:  202.646
  Cycle:    570 Energy:      -642.625493  Gnorm:      0.123558  CPU:  203.167
  Cycle:    571 Energy:      -642.631814  Gnorm:      0.130112  CPU:  203.527
  Cycle:    572 Energy:      -642.639846  Gnorm:      0.142774  CPU:  203.844
  Cycle:    573 Energy:      -642.648282  Gnorm:      0.165211  CPU:  204.190
  Cycle:    574 Energy:      -642.660444  Gnorm:      0.169301  CPU:  204.598
  Cycle:    575 Energy:      -642.668246  Gnorm:      0.162275  CPU:  205.002
  Cycle:    576 Energy:      -642.677088  Gnorm:      0.143429  CPU:  205.410
  Cycle:    577 Energy:      -642.685990  Gnorm:      0.148077  CPU:  205.741
  Cycle:    578 Energy:      -642.694933  Gnorm:      0.134580  CPU:  206.120
  Cycle:    579 Energy:      -642.702920  Gnorm:      0.200069  CPU:  206.448
  Cycle:    580 Energy:      -642.710493  Gnorm:      0.133637  CPU:  206.774
  Cycle:    581 Energy:      -642.718601  Gnorm:      0.150398  CPU:  207.094
  Cycle:    582 Energy:      -642.726766  Gnorm:      0.146919  CPU:  207.414
  Cycle:    583 Energy:      -642.734531  Gnorm:      0.154231  CPU:  207.751
  Cycle:    584 Energy:      -642.743464  Gnorm:      0.162331  CPU:  208.083
  Cycle:    585 Energy:      -642.755367  Gnorm:      0.182086  CPU:  208.485
  Cycle:    586 Energy:      -642.763929  Gnorm:      0.145471  CPU:  208.806
  Cycle:    587 Energy:      -642.771762  Gnorm:      0.140668  CPU:  209.126
  Cycle:    588 Energy:      -642.777996  Gnorm:      0.133892  CPU:  209.501
  Cycle:    589 Energy:      -642.783809  Gnorm:      0.137536  CPU:  209.844
  Cycle:    590 Energy:      -642.788966  Gnorm:      0.133012  CPU:  210.235
  Cycle:    591 Energy:      -642.795012  Gnorm:      0.131838  CPU:  210.569
  Cycle:    592 Energy:      -642.802609  Gnorm:      0.144819  CPU:  210.974
  Cycle:    593 Energy:      -642.810899  Gnorm:      0.179506  CPU:  211.313
  Cycle:    594 Energy:      -642.821908  Gnorm:      0.159097  CPU:  211.720
  Cycle:    595 Energy:      -642.830908  Gnorm:      0.150202  CPU:  212.061
  Cycle:    596 Energy:      -642.838328  Gnorm:      0.151153  CPU:  212.502
  Cycle:    597 Energy:      -642.846842  Gnorm:      0.149336  CPU:  213.003
  Cycle:    598 Energy:      -642.855599  Gnorm:      0.141866  CPU:  213.406
  Cycle:    599 Energy:      -642.863365  Gnorm:      0.195065  CPU:  213.721
  Cycle:    600 Energy:      -642.870727  Gnorm:      0.138094  CPU:  214.055
  Cycle:    601 Energy:      -642.878656  Gnorm:      0.145914  CPU:  214.469
  Cycle:    602 Energy:      -642.886354  Gnorm:      0.148591  CPU:  214.809
  Cycle:    603 Energy:      -642.893075  Gnorm:      0.143875  CPU:  215.127
  Cycle:    604 Energy:      -642.900736  Gnorm:      0.153913  CPU:  215.471
  Cycle:    605 Energy:      -642.912493  Gnorm:      0.185593  CPU:  215.911
  Cycle:    606 Energy:      -642.922192  Gnorm:      0.142807  CPU:  216.266
  Cycle:    607 Energy:      -642.930333  Gnorm:      0.131718  CPU:  216.621
  Cycle:    608 Energy:      -642.937060  Gnorm:      0.136543  CPU:  216.942
  Cycle:    609 Energy:      -642.942736  Gnorm:      0.152271  CPU:  217.282
  Cycle:    610 Energy:      -642.947993  Gnorm:      0.135832  CPU:  217.626
  Cycle:    611 Energy:      -642.954396  Gnorm:      0.126061  CPU:  217.943
  Cycle:    612 Energy:      -642.961806  Gnorm:      0.141916  CPU:  218.270
  Cycle:    613 Energy:      -642.969720  Gnorm:      0.181021  CPU:  218.640
  Cycle:    614 Energy:      -642.981043  Gnorm:      0.156216  CPU:  219.079
  Cycle:    615 Energy:      -642.988512  Gnorm:      0.141375  CPU:  219.414
  Cycle:    616 Energy:      -642.995746  Gnorm:      0.146090  CPU:  219.812
  Cycle:    617 Energy:      -643.004183  Gnorm:      0.144876  CPU:  220.209
  Cycle:    618 Energy:      -643.012572  Gnorm:      0.141774  CPU:  220.541
  Cycle:    619 Energy:      -643.020391  Gnorm:      0.194135  CPU:  220.874
  Cycle:    620 Energy:      -643.027716  Gnorm:      0.138216  CPU:  221.190
  Cycle:    621 Energy:      -643.034538  Gnorm:      0.143869  CPU:  221.546
  Cycle:    622 Energy:      -643.041350  Gnorm:      0.142647  CPU:  221.884
  Cycle:    623 Energy:      -643.047902  Gnorm:      0.129721  CPU:  222.269
  Cycle:    624 Energy:      -643.054381  Gnorm:      0.139067  CPU:  222.616
  Cycle:    625 Energy:      -643.067181  Gnorm:      0.190448  CPU:  223.046
  Cycle:    626 Energy:      -643.076781  Gnorm:      0.139967  CPU:  223.372
  Cycle:    627 Energy:      -643.084609  Gnorm:      0.129074  CPU:  223.696
  Cycle:    628 Energy:      -643.092052  Gnorm:      0.132833  CPU:  224.097
  Cycle:    629 Energy:      -643.099623  Gnorm:      0.192269  CPU:  224.422
  Cycle:    630 Energy:      -643.106504  Gnorm:      0.137882  CPU:  224.744
  Cycle:    631 Energy:      -643.112377  Gnorm:      0.123088  CPU:  225.135
  Cycle:    632 Energy:      -643.117516  Gnorm:      0.122174  CPU:  225.527
  Cycle:    633 Energy:      -643.123547  Gnorm:      0.158104  CPU:  225.896
  Cycle:    634 Energy:      -643.136634  Gnorm:      0.166727  CPU:  226.300
  Cycle:    635 Energy:      -643.144018  Gnorm:      0.125262  CPU:  226.624
  Cycle:    636 Energy:      -643.151142  Gnorm:      0.152809  CPU:  226.969
  Cycle:    637 Energy:      -643.161013  Gnorm:      0.147210  CPU:  227.332
  Cycle:    638 Energy:      -643.168058  Gnorm:      0.151402  CPU:  227.654
  Cycle:    639 Energy:      -643.176996  Gnorm:      0.172070  CPU:  228.101
  Cycle:    640 Energy:      -643.184777  Gnorm:      0.145048  CPU:  228.559
  Cycle:    641 Energy:      -643.190609  Gnorm:      0.132604  CPU:  228.956
  Cycle:    642 Energy:      -643.198780  Gnorm:      0.149164  CPU:  229.284
  Cycle:    643 Energy:      -643.205430  Gnorm:      0.125780  CPU:  229.640
  Cycle:    644 Energy:      -643.210210  Gnorm:      0.141495  CPU:  230.052
  Cycle:    645 Energy:      -643.225567  Gnorm:      0.176482  CPU:  230.461
  Cycle:    646 Energy:      -643.232296  Gnorm:      0.124856  CPU:  230.821
  Cycle:    647 Energy:      -643.238600  Gnorm:      0.125311  CPU:  231.142
  Cycle:    648 Energy:      -643.245384  Gnorm:      0.146501  CPU:  231.538
  Cycle:    649 Energy:      -643.254271  Gnorm:      0.202461  CPU:  232.024
  Cycle:    650 Energy:      -643.262697  Gnorm:      0.148602  CPU:  232.343
  Cycle:    651 Energy:      -643.269041  Gnorm:      0.121175  CPU:  232.661
  Cycle:    652 Energy:      -643.273993  Gnorm:      0.122061  CPU:  233.003
  Cycle:    653 Energy:      -643.279370  Gnorm:      0.152188  CPU:  233.361
  Cycle:    654 Energy:      -643.293594  Gnorm:      0.162342  CPU:  233.762
  Cycle:    655 Energy:      -643.299162  Gnorm:      0.116417  CPU:  234.083
  Cycle:    656 Energy:      -643.306170  Gnorm:      0.148619  CPU:  234.404
  Cycle:    657 Energy:      -643.315433  Gnorm:      0.132113  CPU:  234.724
  Cycle:    658 Energy:      -643.321511  Gnorm:      0.145923  CPU:  235.044
  Cycle:    659 Energy:      -643.329741  Gnorm:      0.172042  CPU:  235.441
  Cycle:    660 Energy:      -643.337128  Gnorm:      0.133178  CPU:  235.761
  Cycle:    661 Energy:      -643.341651  Gnorm:      0.116768  CPU:  236.081
  Cycle:    662 Energy:      -643.348965  Gnorm:      0.151127  CPU:  236.402
  Cycle:    663 Energy:      -643.355714  Gnorm:      0.124495  CPU:  236.734
  Cycle:    664 Energy:      -643.359821  Gnorm:      0.126394  CPU:  237.097
  Cycle:    665 Energy:      -643.374127  Gnorm:      0.174734  CPU:  237.500
  Cycle:    666 Energy:      -643.380733  Gnorm:      0.121479  CPU:  237.828
  Cycle:    667 Energy:      -643.386367  Gnorm:      0.136674  CPU:  238.146
  Cycle:    668 Energy:      -643.393082  Gnorm:      0.142838  CPU:  238.468
  Cycle:    669 Energy:      -643.402224  Gnorm:      0.194748  CPU:  238.787
  Cycle:    670 Energy:      -643.409291  Gnorm:      0.145351  CPU:  239.148
  Cycle:    671 Energy:      -643.414949  Gnorm:      0.105360  CPU:  239.494
  Cycle:    672 Energy:      -643.418188  Gnorm:      0.098044  CPU:  239.814
  Cycle:    673 Energy:      -643.422777  Gnorm:      0.137275  CPU:  240.133
  Cycle:    674 Energy:      -643.441307  Gnorm:      0.163368  CPU:  240.529
  Cycle:    675 Energy:      -643.445641  Gnorm:      0.098463  CPU:  240.905
  Cycle:    676 Energy:      -643.453915  Gnorm:      0.153455  CPU:  241.358
  Cycle:    677 Energy:      -643.462964  Gnorm:      0.167463  CPU:  241.678
  Cycle:    678 Energy:      -643.472414  Gnorm:      0.160905  CPU:  241.996
  Cycle:    679 Energy:      -643.485593  Gnorm:      0.228266  CPU:  242.393
  Cycle:    680 Energy:      -643.495213  Gnorm:      0.145087  CPU:  242.737
  Cycle:    681 Energy:      -643.500040  Gnorm:      0.087278  CPU:  243.160
  Cycle:    682 Energy:      -643.504810  Gnorm:      0.141071  CPU:  243.482
  Cycle:    683 Energy:      -643.510655  Gnorm:      0.104041  CPU:  243.801
  Cycle:    684 Energy:      -643.513786  Gnorm:      0.122028  CPU:  244.163
  Cycle:    685 Energy:      -643.521273  Gnorm:      0.134174  CPU:  244.531
  Cycle:    686 Energy:      -643.528667  Gnorm:      0.153218  CPU:  244.854
  Cycle:    687 Energy:      -643.536925  Gnorm:      0.154092  CPU:  245.228
  Cycle:    688 Energy:      -643.545692  Gnorm:      0.145682  CPU:  245.559
  Cycle:    689 Energy:      -643.556258  Gnorm:      0.199297  CPU:  245.957
  Cycle:    690 Energy:      -643.564198  Gnorm:      0.108354  CPU:  246.292
  Cycle:    691 Energy:      -643.568859  Gnorm:      0.105197  CPU:  246.681
  Cycle:    692 Energy:      -643.573142  Gnorm:      0.118852  CPU:  247.020
  Cycle:    693 Energy:      -643.577166  Gnorm:      0.115608  CPU:  247.395
  Cycle:    694 Energy:      -643.585267  Gnorm:      0.146426  CPU:  247.801
  Cycle:    695 Energy:      -643.590738  Gnorm:      0.135862  CPU:  248.126
  Cycle:    696 Energy:      -643.599068  Gnorm:      0.165405  CPU:  248.552
  Cycle:    697 Energy:      -643.611447  Gnorm:      0.173966  CPU:  248.921
  Cycle:    698 Energy:      -643.618924  Gnorm:      0.117007  CPU:  249.245
  Cycle:    699 Energy:      -643.630473  Gnorm:      0.239518  CPU:  249.567
  Cycle:    700 Energy:      -643.638279  Gnorm:      0.139680  CPU:  249.889
  Cycle:    701 Energy:      -643.644456  Gnorm:      0.122348  CPU:  250.211
  Cycle:    702 Energy:      -643.655257  Gnorm:      0.141632  CPU:  250.611
  Cycle:    703 Energy:      -643.663285  Gnorm:      0.150937  CPU:  250.933
  Cycle:    704 Energy:      -643.671146  Gnorm:      0.119482  CPU:  251.257
  Cycle:    705 Energy:      -643.677574  Gnorm:      0.137640  CPU:  251.580
  Cycle:    706 Energy:      -643.682927  Gnorm:      0.124508  CPU:  251.904
  Cycle:    707 Energy:      -643.688089  Gnorm:      0.095756  CPU:  252.229
  Cycle:    708 Energy:      -643.691491  Gnorm:      0.126323  CPU:  252.553
  Cycle:    709 Energy:      -643.699611  Gnorm:      0.182136  CPU:  252.957
  Cycle:    710 Energy:      -643.704985  Gnorm:      0.122082  CPU:  253.277
  Cycle:    711 Energy:      -643.709700  Gnorm:      0.113078  CPU:  253.598
  Cycle:    712 Energy:      -643.714263  Gnorm:      0.105849  CPU:  253.919
  Cycle:    713 Energy:      -643.718143  Gnorm:      0.122801  CPU:  254.239
  Cycle:    714 Energy:      -643.725289  Gnorm:      0.140944  CPU:  254.560
  Cycle:    715 Energy:      -643.731738  Gnorm:      0.122233  CPU:  254.879
  Cycle:    716 Energy:      -643.738220  Gnorm:      0.139766  CPU:  255.198
  Cycle:    717 Energy:      -643.748452  Gnorm:      0.137948  CPU:  255.595
  Cycle:    718 Energy:      -643.755809  Gnorm:      0.128825  CPU:  255.913
  Cycle:    719 Energy:      -643.762801  Gnorm:      0.167030  CPU:  256.232
  Cycle:    720 Energy:      -643.767869  Gnorm:      0.132660  CPU:  256.555
  Cycle:    721 Energy:      -643.773902  Gnorm:      0.135343  CPU:  256.873
  Cycle:    722 Energy:      -643.782648  Gnorm:      0.147289  CPU:  257.192
  Cycle:    723 Energy:      -643.790132  Gnorm:      0.123221  CPU:  257.511
  Cycle:    724 Energy:      -643.796313  Gnorm:      0.133957  CPU:  257.832
  Cycle:    725 Energy:      -643.803482  Gnorm:      0.135175  CPU:  258.153
  Cycle:    726 Energy:      -643.808529  Gnorm:      0.103142  CPU:  258.474
  Cycle:    727 Energy:      -643.812837  Gnorm:      0.105757  CPU:  258.796
  Cycle:    728 Energy:      -643.817418  Gnorm:      0.118825  CPU:  259.196
  Cycle:    729 Energy:      -643.822161  Gnorm:      0.152639  CPU:  259.558
  Cycle:    730 Energy:      -643.826075  Gnorm:      0.115567  CPU:  259.879
  Cycle:    731 Energy:      -643.830638  Gnorm:      0.105821  CPU:  260.200
  Cycle:    732 Energy:      -643.834944  Gnorm:      0.105249  CPU:  260.522
  Cycle:    733 Energy:      -643.838942  Gnorm:      0.119430  CPU:  260.842
  Cycle:    734 Energy:      -643.845854  Gnorm:      0.133611  CPU:  261.163
  Cycle:    735 Energy:      -643.851970  Gnorm:      0.122701  CPU:  261.483
  Cycle:    736 Energy:      -643.858639  Gnorm:      0.132933  CPU:  261.803
  Cycle:    737 Energy:      -643.866982  Gnorm:      0.145224  CPU:  262.202
  Cycle:    738 Energy:      -643.873402  Gnorm:      0.136187  CPU:  262.527
  Cycle:    739 Energy:      -643.879117  Gnorm:      0.148847  CPU:  262.852
  Cycle:    740 Energy:      -643.883959  Gnorm:      0.132454  CPU:  263.178
  Cycle:    741 Energy:      -643.889786  Gnorm:      0.139493  CPU:  263.504
  Cycle:    742 Energy:      -643.897798  Gnorm:      0.138359  CPU:  263.826
  Cycle:    743 Energy:      -643.904010  Gnorm:      0.123957  CPU:  264.153
  Cycle:    744 Energy:      -643.909838  Gnorm:      0.133917  CPU:  264.475
  Cycle:    745 Energy:      -643.916627  Gnorm:      0.129845  CPU:  264.799
  Cycle:    746 Energy:      -643.921431  Gnorm:      0.097916  CPU:  265.122
  Cycle:    747 Energy:      -643.925826  Gnorm:      0.103959  CPU:  265.444
  Cycle:    748 Energy:      -643.930087  Gnorm:      0.108115  CPU:  265.773
  Cycle:    749 Energy:      -643.934759  Gnorm:      0.150257  CPU:  266.097
  Cycle:    750 Energy:      -643.939030  Gnorm:      0.107366  CPU:  266.419
  Cycle:    751 Energy:      -643.943149  Gnorm:      0.101361  CPU:  266.746
  Cycle:    752 Energy:      -643.947606  Gnorm:      0.096294  CPU:  267.069
  Cycle:    753 Energy:      -643.951935  Gnorm:      0.124251  CPU:  267.392
  Cycle:    754 Energy:      -643.958315  Gnorm:      0.130533  CPU:  267.795
  Cycle:    755 Energy:      -643.963577  Gnorm:      0.124664  CPU:  268.119
  Cycle:    756 Energy:      -643.969169  Gnorm:      0.133929  CPU:  268.441
  Cycle:    757 Energy:      -643.976300  Gnorm:      0.147821  CPU:  268.763
  Cycle:    758 Energy:      -643.982161  Gnorm:      0.131761  CPU:  269.086
  Cycle:    759 Energy:      -643.988116  Gnorm:      0.136733  CPU:  269.408
  Cycle:    760 Energy:      -643.993503  Gnorm:      0.117981  CPU:  269.729
  Cycle:    761 Energy:      -643.998639  Gnorm:      0.135220  CPU:  270.052
  Cycle:    762 Energy:      -644.005143  Gnorm:      0.122225  CPU:  270.374
  Cycle:    763 Energy:      -644.010583  Gnorm:      0.108495  CPU:  270.697
  Cycle:    764 Energy:      -644.015073  Gnorm:      0.140804  CPU:  271.020
  Cycle:    765 Energy:      -644.022369  Gnorm:      0.135480  CPU:  271.342
  Cycle:    766 Energy:      -644.026596  Gnorm:      0.101519  CPU:  271.664
  Cycle:    767 Energy:      -644.030863  Gnorm:      0.103071  CPU:  271.986
  Cycle:    768 Energy:      -644.034598  Gnorm:      0.109323  CPU:  272.309
  Cycle:    769 Energy:      -644.039828  Gnorm:      0.154626  CPU:  272.633
  Cycle:    770 Energy:      -644.044534  Gnorm:      0.109477  CPU:  272.956
  Cycle:    771 Energy:      -644.047670  Gnorm:      0.100560  CPU:  273.279
  Cycle:    772 Energy:      -644.051535  Gnorm:      0.103849  CPU:  273.602
  Cycle:    773 Energy:      -644.054999  Gnorm:      0.109126  CPU:  273.926
  Cycle:    774 Energy:      -644.061768  Gnorm:      0.132640  CPU:  274.347
  Cycle:    775 Energy:      -644.066570  Gnorm:      0.111231  CPU:  274.669
  Cycle:    776 Energy:      -644.072863  Gnorm:      0.120995  CPU:  274.992
  Cycle:    777 Energy:      -644.080188  Gnorm:      0.131369  CPU:  275.315
  Cycle:    778 Energy:      -644.085844  Gnorm:      0.126789  CPU:  275.638
  Cycle:    779 Energy:      -644.090912  Gnorm:      0.151598  CPU:  275.961
  Cycle:    780 Energy:      -644.095327  Gnorm:      0.124114  CPU:  276.284
  Cycle:    781 Energy:      -644.100444  Gnorm:      0.124404  CPU:  276.607
  Cycle:    782 Energy:      -644.107247  Gnorm:      0.132737  CPU:  276.929
  Cycle:    783 Energy:      -644.112432  Gnorm:      0.120235  CPU:  277.251
  Cycle:    784 Energy:      -644.116772  Gnorm:      0.113915  CPU:  277.572
  Cycle:    785 Energy:      -644.123859  Gnorm:      0.131044  CPU:  277.895
  Cycle:    786 Energy:      -644.128645  Gnorm:      0.096012  CPU:  278.220
  Cycle:    787 Energy:      -644.133043  Gnorm:      0.090879  CPU:  278.543
  Cycle:    788 Energy:      -644.136369  Gnorm:      0.102258  CPU:  278.869
  Cycle:    789 Energy:      -644.142018  Gnorm:      0.184928  CPU:  279.195
  Cycle:    790 Energy:      -644.147197  Gnorm:      0.106151  CPU:  279.522
  Cycle:    791 Energy:      -644.150308  Gnorm:      0.092542  CPU:  279.848
  Cycle:    792 Energy:      -644.153732  Gnorm:      0.108947  CPU:  280.174
  Cycle:    793 Energy:      -644.157097  Gnorm:      0.104745  CPU:  280.499
  Cycle:    794 Energy:      -644.163844  Gnorm:      0.126156  CPU:  280.902
  Cycle:    795 Energy:      -644.168625  Gnorm:      0.105007  CPU:  281.225
  Cycle:    796 Energy:      -644.174153  Gnorm:      0.124718  CPU:  281.547
  Cycle:    797 Energy:      -644.180131  Gnorm:      0.140693  CPU:  281.869
  Cycle:    798 Energy:      -644.185252  Gnorm:      0.122237  CPU:  282.191
  Cycle:    799 Energy:      -644.190679  Gnorm:      0.128837  CPU:  282.591
  Cycle:    800 Energy:      -644.194867  Gnorm:      0.124273  CPU:  282.912
  Cycle:    801 Energy:      -644.199165  Gnorm:      0.112237  CPU:  283.233
  Cycle:    802 Energy:      -644.205583  Gnorm:      0.132444  CPU:  283.555
  Cycle:    803 Energy:      -644.209858  Gnorm:      0.111958  CPU:  283.878
  Cycle:    804 Energy:      -644.214582  Gnorm:      0.111394  CPU:  284.201
  Cycle:    805 Energy:      -644.221168  Gnorm:      0.119755  CPU:  284.527
  Cycle:    806 Energy:      -644.225366  Gnorm:      0.107201  CPU:  284.853
  Cycle:    807 Energy:      -644.229255  Gnorm:      0.100176  CPU:  285.179
  Cycle:    808 Energy:      -644.232352  Gnorm:      0.092907  CPU:  285.506
  Cycle:    809 Energy:      -644.237779  Gnorm:      0.183135  CPU:  285.832
  Cycle:    810 Energy:      -644.242622  Gnorm:      0.104732  CPU:  286.160
  Cycle:    811 Energy:      -644.245370  Gnorm:      0.091803  CPU:  286.487
  Cycle:    812 Energy:      -644.249349  Gnorm:      0.099494  CPU:  286.814
  Cycle:    813 Energy:      -644.253529  Gnorm:      0.114598  CPU:  287.141
  Cycle:    814 Energy:      -644.260232  Gnorm:      0.113376  CPU:  287.466
  Cycle:    815 Energy:      -644.264127  Gnorm:      0.108192  CPU:  287.789
  Cycle:    816 Energy:      -644.268526  Gnorm:      0.122561  CPU:  288.112
  Cycle:    817 Energy:      -644.275323  Gnorm:      0.109372  CPU:  288.435
  Cycle:    818 Energy:      -644.280321  Gnorm:      0.117211  CPU:  288.758
  Cycle:    819 Energy:      -644.284984  Gnorm:      0.148388  CPU:  289.081
  Cycle:    820 Energy:      -644.289399  Gnorm:      0.117059  CPU:  289.403
  Cycle:    821 Energy:      -644.294155  Gnorm:      0.107069  CPU:  289.725
  Cycle:    822 Energy:      -644.300538  Gnorm:      0.123508  CPU:  290.048
  Cycle:    823 Energy:      -644.305072  Gnorm:      0.107674  CPU:  290.370
  Cycle:    824 Energy:      -644.308995  Gnorm:      0.115335  CPU:  290.694
  Cycle:    825 Energy:      -644.314802  Gnorm:      0.129938  CPU:  291.018
  Cycle:    826 Energy:      -644.319154  Gnorm:      0.104426  CPU:  291.342
  Cycle:    827 Energy:      -644.322553  Gnorm:      0.104305  CPU:  291.667
  Cycle:    828 Energy:      -644.325490  Gnorm:      0.086766  CPU:  291.993
  Cycle:    829 Energy:      -644.330089  Gnorm:      0.139240  CPU:  292.318
  Cycle:    830 Energy:      -644.334404  Gnorm:      0.087630  CPU:  292.643
  Cycle:    831 Energy:      -644.337179  Gnorm:      0.101013  CPU:  292.968
  Cycle:    832 Energy:      -644.340436  Gnorm:      0.101730  CPU:  293.292
  Cycle:    833 Energy:      -644.344143  Gnorm:      0.123687  CPU:  293.616
  Cycle:    834 Energy:      -644.350204  Gnorm:      0.109189  CPU:  293.941
  Cycle:    835 Energy:      -644.353878  Gnorm:      0.105168  CPU:  294.264
  Cycle:    836 Energy:      -644.358104  Gnorm:      0.122696  CPU:  294.588
  Cycle:    837 Energy:      -644.364341  Gnorm:      0.109307  CPU:  294.910
  Cycle:    838 Energy:      -644.369027  Gnorm:      0.121477  CPU:  295.232
  Cycle:    839 Energy:      -644.373309  Gnorm:      0.136645  CPU:  295.554
  Cycle:    840 Energy:      -644.377145  Gnorm:      0.117253  CPU:  295.876
  Cycle:    841 Energy:      -644.380987  Gnorm:      0.101443  CPU:  296.198
  Cycle:    842 Energy:      -644.385870  Gnorm:      0.125697  CPU:  296.521
  Cycle:    843 Energy:      -644.390382  Gnorm:      0.102708  CPU:  296.844
  Cycle:    844 Energy:      -644.393703  Gnorm:      0.098589  CPU:  297.172
  Cycle:    845 Energy:      -644.400718  Gnorm:      0.126257  CPU:  297.581
  Cycle:    846 Energy:      -644.404831  Gnorm:      0.097260  CPU:  297.910
  Cycle:    847 Energy:      -644.408695  Gnorm:      0.096587  CPU:  298.239
  Cycle:    848 Energy:      -644.411105  Gnorm:      0.097976  CPU:  298.568
  Cycle:    849 Energy:      -644.416023  Gnorm:      0.155865  CPU:  298.898
  Cycle:    850 Energy:      -644.420309  Gnorm:      0.104082  CPU:  299.227


  **** Maximum number of function calls has been reached ****


  Final enthalpy =    -644.42030883 eV      
  Final Gnorm    =       0.10408222

  Components of enthalpy : 

--------------------------------------------------------------------------------
  Interatomic potentials     =         218.72247322 eV    
  Monopole - monopole (real) =        -501.23049827 eV    
  Monopole - monopole (recip)=        -489.87712504 eV    
  Monopole - monopole (total)=        -991.10762331 eV    
  Pressure*volume            =         127.96484126 eV    
--------------------------------------------------------------------------------
  Total lattice enthalpy     =        -644.42030883 eV    
--------------------------------------------------------------------------------
  Total lattice enthalpy     =          -62176.7089 kJ/(mole unit cells)
--------------------------------------------------------------------------------

  Final fractional coordinates of atoms :

--------------------------------------------------------------------------------
   No.  Atomic        x           y          z          Radius
        Label       (Frac)      (Frac)     (Frac)       (Angs) 
--------------------------------------------------------------------------------
     1  Al    c     0.512969    0.068962    0.290965    0.000000
     2  Al    c     0.616597    0.434583    0.248844    0.000000
     3  Al    c     0.288047    0.096811    0.233953    0.000000
     4  Al    c     0.167489    0.199883    0.804546    0.000000
     5  Al    c     0.233220    0.083277    0.014403    0.000000
     6  Al    c     0.266617    0.652278    0.372808    0.000000
     7  Al    c     0.322066    0.499945    0.953942    0.000000
     8  Al    c     0.503462    0.147232    0.985598    0.000000
     9  Mg    c     0.259285    0.882406    0.270347    0.000000
    10  Mg    c     0.278178    0.318381    0.100356    0.000000
    11  Mg    c     0.710387    0.404751    0.761806    0.000000
    12  Mg    c     0.264230    0.591183    0.702715    0.000000
    13  O     c     0.473054    0.753450    0.723036    0.000000
    14  O     c     0.720483    0.946193    0.789300    0.000000
    15  O     c     0.733667    0.052265    0.562021    0.000000
    16  O     c     0.529321    0.361703    0.421092    0.000000
    17  O     c     0.494413    0.165718    0.524678    0.000000
    18  O     c     0.044682    0.525486    0.758480    0.000000
    19  O     c     0.534840    0.457896    0.190283    0.000000
    20  O     c     0.029769    0.961381    0.640567    0.000000
    21  O     c     0.032897    0.285575    0.860349    0.000000
    22  O     c     0.935774    0.326927    0.331052    0.000000
    23  O     c     0.206453    0.236716    0.949206    0.000000
    24  O     c     0.616847    0.794938    0.411924    0.000000
    25  O     c     0.030952    0.758720    0.698579    0.000000
    26  O     c     0.386076    0.100802    0.332376    0.000000
    27  O     c     0.871819    0.290950    0.694937    0.000000
    28  O     c     0.660121    0.357075    0.648427    0.000000
--------------------------------------------------------------------------------

  Final Cartesian lattice vectors (Angstroms) :

       15.382782    3.091886    8.321827
        5.943620    8.832102   -3.051445
        3.921239   -2.753788    6.772736


  Final cell parameters and derivatives :

--------------------------------------------------------------------------------
       a           17.760702 Angstrom     dE/de1(xx)     0.874837 eV/strain
       b           11.074473 Angstrom     dE/de2(yy)    -0.392850 eV/strain
       c            8.296350 Angstrom     dE/de3(zz)    -0.553539 eV/strain
       alpha      103.649853 Degrees      dE/de4(yz)    -0.353483 eV/strain
       beta        42.770034 Degrees      dE/de5(xz)     0.380200 eV/strain
       gamma       61.668546 Degrees      dE/de6(xy)    -0.156179 eV/strain
--------------------------------------------------------------------------------

  Primitive cell volume =           205.023861 Angs**3

  Density of cell =      4.609193 g/cm**3

  Non-primitive cell volume =           205.023861 Angs**3


  Final internal derivatives :

--------------------------------------------------------------------------------
   No.  Atomic          a             b             c           Radius
        Label          (eV)          (eV)          (eV)        (eV/Angs)
--------------------------------------------------------------------------------
      1 Al    c       0.000000      0.000000      0.000000      0.000000
      2 Al    c      -3.005018     -1.569649     -0.966479      0.000000
      3 Al    c       0.087538      0.407128      0.385071      0.000000
      4 Al    c       1.296020      0.606268      0.469406      0.000000
      5 Al    c      -1.214500      0.573481     -1.225188      0.000000
      6 Al    c       1.505189      0.860301      1.314483      0.000000
      7 Al    c      -2.066842     -0.270142     -1.350099      0.000000
      8 Al    c      -0.552319      0.017934     -0.028372      0.000000
      9 Mg    c       0.758948      0.908246      0.975926      0.000000
     10 Mg    c      -1.468640     -0.336432     -0.379910      0.000000
     11 Mg    c       0.315818     -0.456490      0.257797      0.000000
     12 Mg    c       0.079605     -0.812294      0.432627      0.000000
     13 O     c       0.589912      0.377776      0.560492      0.000000
     14 O     c      -1.239816     -0.580894      0.213367      0.000000
     15 O     c      -0.468574      1.147861      0.569808      0.000000
     16 O     c       1.405207     -0.634022      0.517381      0.000000
     17 O     c       1.651452      1.530211      0.633930      0.000000
     18 O     c      -0.343208     -0.021139     -0.393561      0.000000
     19 O     c      -0.417424      0.302482     -0.436479      0.000000
     20 O     c       1.325487     -0.350954      0.209957      0.000000
     21 O     c      -1.007257     -1.791389      0.781447      0.000000
     22 O     c      -0.166570     -1.200886      0.534636      0.000000
     23 O     c      -0.514241      0.926723      0.667050      0.000000
     24 O     c      -1.077877     -0.900688     -0.658164      0.000000
     25 O     c       2.902364      1.029250     -0.053203      0.000000
     26 O     c       0.230718     -0.495170      0.613973      0.000000
     27 O     c       1.792206     -1.066047      0.856495      0.000000
     28 O     c      -1.748478      0.273789     -0.809509      0.000000
--------------------------------------------------------------------------------
  Maximum abs         3.005018      1.791389      1.350099      0.000000
--------------------------------------------------------------------------------


  Time to end of optimisation =     299.2278 seconds


  Peak dynamic memory used =       1.90 MB 


  Timing analysis for GULP :

--------------------------------------------------------------------------------
  Task / Subroutine                                          Time (Seconds)
--------------------------------------------------------------------------------
  Calculation of reciprocal space energy and derivatives          1.7666
  Calculation of real space energy and derivatives              297.2188
  Global summation overhead                                       0.0062
--------------------------------------------------------------------------------
  Total CPU time                                                299.2281
--------------------------------------------------------------------------------


  Job Finished at 16:11.05 11th June       2024                               

