********************************************************************************
*                       GENERAL UTILITY LATTICE PROGRAM                        *
*                                 Julian Gale                                  *
*                       Curtin Institute for Computation                       *
*                    School of Molecular and Life Sciences                     *
*                    Curtin University, Western Australia                      *
********************************************************************************
* Version = 6.0.0 * Last modified =  12th July 2021                            *
********************************************************************************
*  optimise     - perform optimisation run                                     *
*  conp         - constant pressure calculation                                *
*  nosymmetry   - turn off symmetry after initial structure generation         *
*  conjugate    - use conjugate gradients minimiser                            *
********************************************************************************

  Job Started  at 15:53.15 11th June       2024                               

  Number of CPUs =     1


  Total number of configurations input =      1

********************************************************************************
*  Input for Configuration =   1                                               *
********************************************************************************

  Formula = Al8Mg4O16                                                   

  Number of irreducible atoms/shells =      28


  Total number atoms/shells =      28

  Dimensionality = 3               :  Bulk   



  Cartesian lattice vectors (Angstroms) :

        4.603509    0.000000    0.000000
        0.000000    7.822257    0.000000
        0.000000    0.000000    5.781099

  Cell parameters (Angstroms/Degrees):

  a =       4.6035    alpha =  90.0000
  b =       7.8223    beta  =  90.0000
  c =       5.7811    gamma =  90.0000

  Initial cell volume =         208.176407 Angs**3

  Temperature of configuration =   0.00     K 

  Pressure of configuration =       100.000 GPa 

  Fractional coordinates of asymmetric unit :

--------------------------------------------------------------------------------
   No.  Atomic       x           y          z         Charge      Occupancy
        Label      (Frac)      (Frac)     (Frac)        (e)         (Frac)  
--------------------------------------------------------------------------------
      1 Al    c    0.069455    0.394298    0.441273     3.00000    1.000000    
      2 Al    c    0.311120 *  0.986277 *  0.131561 *   3.00000    1.000000    
      3 Al    c    0.759743 *  0.986277 *  0.441273 *   3.00000    1.000000    
      4 Al    c    0.620832 *  0.394298 *  0.131561 *   3.00000    1.000000    
      5 Al    c    0.475521 *  0.179308 *  0.347767 *   3.00000    1.000000    
      6 Al    c    0.905054 *  0.201267 *  0.038055 *   3.00000    1.000000    
      7 Al    c    0.165809 *  0.201267 *  0.347767 *   3.00000    1.000000    
      8 Al    c    0.214766 *  0.179308 *  0.038055 *   3.00000    1.000000    
      9 Mg    c    0.135233 *  0.623829 *  0.701696 *   2.00000    1.000000    
     10 Mg    c    0.245342 *  0.756746 *  0.011409 *   2.00000    1.000000    
     11 Mg    c    0.444946 *  0.756746 *  0.701696 *   2.00000    1.000000    
     12 Mg    c    0.935629 *  0.623829 *  0.011409 *   2.00000    1.000000    
     13 O     c    0.198307 *  0.474007 *  0.171541 *  -2.00000    1.000000    
     14 O     c    0.182268 *  0.906568 *  0.861828 *  -2.00000    1.000000    
     15 O     c    0.888594 *  0.906568 *  0.171541 *  -2.00000    1.000000    
     16 O     c    0.491981 *  0.474007 *  0.861828 *  -2.00000    1.000000    
     17 O     c    0.719986 *  0.519404 *  0.264825 *  -2.00000    1.000000    
     18 O     c    0.660589 *  0.861171 *  0.955112 *  -2.00000    1.000000    
     19 O     c    0.029699 *  0.861171 *  0.264825 *  -2.00000    1.000000    
     20 O     c    0.350876 *  0.519404 *  0.955112 *  -2.00000    1.000000    
     21 O     c    0.180239 *  0.624675 *  0.399401 *  -2.00000    1.000000    
     22 O     c    0.200336 *  0.755900 *  0.089688 *  -2.00000    1.000000    
     23 O     c    0.870527 *  0.755900 *  0.399401 *  -2.00000    1.000000    
     24 O     c    0.510048 *  0.624675 *  0.089688 *  -2.00000    1.000000    
     25 O     c    0.300091 *  0.393368 *  0.561626 *  -2.00000    1.000000    
     26 O     c    0.080484 *  0.987207 *  0.251913 *  -2.00000    1.000000    
     27 O     c    0.990379 *  0.987207 *  0.561626 *  -2.00000    1.000000    
     28 O     c    0.390196 *  0.393368 *  0.251913 *  -2.00000    1.000000    
--------------------------------------------------------------------------------



********************************************************************************
*  General input information                                                   *
********************************************************************************

  Species output for all configurations : 

--------------------------------------------------------------------------------
  Species    Type    Atomic    Atomic    Charge       Radii (Angs)     Library
                     Number     Mass       (e)     Cova   Ionic  VDW   Symbol
--------------------------------------------------------------------------------
    Mg       Core       12      24.31   2.000000   1.100  0.000  1.640          
    Al       Core       13      26.98   3.000000   1.350  0.000  2.050          
    O        Core        8      16.00  -2.000000   0.730  0.000  1.360          
--------------------------------------------------------------------------------


  Lattice summation method               =    Ewald          (3-D)
                                         =    Parry          (2-D)
                                         =    Saunders et al (1-D)
  Accuracy factor for lattice sums       =   12.000


  Analytic derivatives to be used

  Time limit = Infinity

  Maximum range for interatomic potentials =    100000.000000 Angstroms

  General interatomic potentials :

--------------------------------------------------------------------------------
Atom  Types   Potential      Parameter       Value         Units   Cutoffs(Ang)
  1     2                                                            Min /  Max 
--------------------------------------------------------------------------------
O    c Mg   c Lennard       Lennard-Jones A  1.5000000    eV*Ang^m  0.000  6.000
                            Lennard-Jones B  0.0000000    eV*Ang^n  
                            Exponent m        12          None
                            Exponent n         6          None
--------------------------------------------------------------------------------
O    c Al   c Lennard       Lennard-Jones A  1.5000000    eV*Ang^m  0.000  6.000
                            Lennard-Jones B  0.0000000    eV*Ang^n  
                            Exponent m        12          None
                            Exponent n         6          None
--------------------------------------------------------------------------------
O    c O    c Lennard       Lennard-Jones A  1.5000000    eV*Ang^m  0.000  6.000
                            Lennard-Jones B  0.0000000    eV*Ang^n  
                            Exponent m        12          None
                            Exponent n         6          None
--------------------------------------------------------------------------------
Mg   c Mg   c Lennard       Lennard-Jones A  1.5000000    eV*Ang^m  0.000  6.000
                            Lennard-Jones B  0.0000000    eV*Ang^n  
                            Exponent m        12          None
                            Exponent n         6          None
--------------------------------------------------------------------------------
Mg   c Al   c Lennard       Lennard-Jones A  1.5000000    eV*Ang^m  0.000  6.000
                            Lennard-Jones B  0.0000000    eV*Ang^n  
                            Exponent m        12          None
                            Exponent n         6          None
--------------------------------------------------------------------------------
Al   c Al   c Lennard       Lennard-Jones A  1.5000000    eV*Ang^m  0.000  6.000
                            Lennard-Jones B  0.0000000    eV*Ang^n  
                            Exponent m        12          None
                            Exponent n         6          None
--------------------------------------------------------------------------------
O    c Mg   c Buckingham    Buckingham A     1428.5000    eV        0.000  7.000
                            Buckingham rho  0.29450000    Ang       
                            Buckingham C     0.0000000    eV*Ang^6  
--------------------------------------------------------------------------------
O    c Al   c Buckingham    Buckingham A     1114.9000    eV        0.000  7.000
                            Buckingham rho  0.31180000    Ang       
                            Buckingham C     0.0000000    eV*Ang^6  
--------------------------------------------------------------------------------
O    c O    c Buckingham    Buckingham A     2023.8000    eV        0.000  7.000
                            Buckingham rho  0.26740000    Ang       
                            Buckingham C     0.0000000    eV*Ang^6  
--------------------------------------------------------------------------------

********************************************************************************
*  Output for configuration   1                                                *
********************************************************************************


  Components of enthalpy : 

--------------------------------------------------------------------------------
  Interatomic potentials     =        7291.08261365 eV    
  Monopole - monopole (real) =          30.13576767 eV    
  Monopole - monopole (recip)=        -301.11182074 eV    
  Monopole - monopole (total)=        -270.97605307 eV    
  Pressure*volume            =         129.93249044 eV    
--------------------------------------------------------------------------------
  Total lattice enthalpy     =        7150.03905102 eV    
--------------------------------------------------------------------------------
  Total lattice enthalpy     =          689869.4701 kJ/(mole unit cells)
--------------------------------------------------------------------------------


  Number of variables =       87

  Maximum number of calculations  =           850
  Maximum Hessian update interval =            10
  Maximum step size               =   1.000000000
  Maximum parameter tolerance     =   0.000010000
  Maximum function  tolerance     =   0.000010000
  Maximum gradient  tolerance     =   0.001000000
  Maximum gradient  component     =   0.010000000

  Cell parameters to be optimised using strains

  Conjugate gradient optimiser to be used

  Lower half triangular hessian to be used

  Minimiser to switch to RFO
  When gradient norm is less than     0.010000

  Start of bulk optimisation :

  Cycle:      0 Energy:      7150.039051  Gnorm:  14300.251019  CPU:    0.034
  Cycle:      1 Energy:       519.155746  Gnorm:     72.026392  CPU:    0.079
  Cycle:      2 Energy:       -79.703368  Gnorm:     40.409638  CPU:    0.156
  Cycle:      3 Energy:      -271.616012  Gnorm:     17.350263  CPU:    0.210
  Cycle:      4 Energy:      -443.107206  Gnorm:      9.014088  CPU:    0.262
  Cycle:      5 Energy:      -505.047030  Gnorm:      6.300425  CPU:    0.314
  Cycle:      6 Energy:      -552.341844  Gnorm:      4.300872  CPU:    0.366
  Cycle:      7 Energy:      -573.426560  Gnorm:      3.251573  CPU:    0.412
  Cycle:      8 Energy:      -587.189925  Gnorm:      2.616745  CPU:    0.456
  Cycle:      9 Energy:      -596.375015  Gnorm:      1.916304  CPU:    0.501
  Cycle:     10 Energy:      -601.171330  Gnorm:      1.411490  CPU:    0.546
  Cycle:     11 Energy:      -606.611603  Gnorm:      1.707845  CPU:    0.591
  Cycle:     12 Energy:      -611.118286  Gnorm:      1.594628  CPU:    0.628
  Cycle:     13 Energy:      -614.613709  Gnorm:      1.259944  CPU:    0.665
  Cycle:     14 Energy:      -617.968820  Gnorm:      1.161607  CPU:    0.709
  Cycle:     15 Energy:      -620.288134  Gnorm:      0.974412  CPU:    0.746
  Cycle:     16 Energy:      -622.790811  Gnorm:      0.994531  CPU:    0.791
  Cycle:     17 Energy:      -625.516943  Gnorm:      0.772536  CPU:    0.846
  Cycle:     18 Energy:      -627.060917  Gnorm:      0.702827  CPU:    0.909
  Cycle:     19 Energy:      -627.873932  Gnorm:      0.643271  CPU:    0.960
  Cycle:     20 Energy:      -628.335276  Gnorm:      0.502295  CPU:    1.011
  Cycle:     21 Energy:      -629.039737  Gnorm:      0.504344  CPU:    1.073
  Cycle:     22 Energy:      -630.511417  Gnorm:      0.799326  CPU:    1.135
  Cycle:     23 Energy:      -631.218182  Gnorm:      0.579337  CPU:    1.197
  Cycle:     24 Energy:      -632.018175  Gnorm:      0.542271  CPU:    1.259
  Cycle:     25 Energy:      -632.544004  Gnorm:      0.507656  CPU:    1.309
  Cycle:     26 Energy:      -633.015821  Gnorm:      0.412735  CPU:    1.371
  Cycle:     27 Energy:      -633.478704  Gnorm:      0.487066  CPU:    1.434
  Cycle:     28 Energy:      -633.913552  Gnorm:      0.473591  CPU:    1.485
  Cycle:     29 Energy:      -634.349692  Gnorm:      0.423986  CPU:    1.548
  Cycle:     30 Energy:      -634.654168  Gnorm:      0.380482  CPU:    1.599
  Cycle:     31 Energy:      -634.948363  Gnorm:      0.380400  CPU:    1.661
  Cycle:     32 Energy:      -635.214198  Gnorm:      0.323740  CPU:    1.723
  Cycle:     33 Energy:      -635.561208  Gnorm:      0.404393  CPU:    1.786
  Cycle:     34 Energy:      -635.933239  Gnorm:      0.473125  CPU:    1.826
  Cycle:     35 Energy:      -636.234147  Gnorm:      0.378626  CPU:    1.863
  Cycle:     36 Energy:      -636.616099  Gnorm:      0.334201  CPU:    1.918
  Cycle:     37 Energy:      -636.815255  Gnorm:      0.331521  CPU:    1.969
  Cycle:     38 Energy:      -636.996404  Gnorm:      0.327264  CPU:    2.032
  Cycle:     39 Energy:      -637.232195  Gnorm:      0.262219  CPU:    2.094
  Cycle:     40 Energy:      -637.333534  Gnorm:      0.286089  CPU:    2.145
  Cycle:     41 Energy:      -637.489986  Gnorm:      0.260202  CPU:    2.207
  Cycle:     42 Energy:      -637.661241  Gnorm:      0.271425  CPU:    2.270
  Cycle:     43 Energy:      -637.931208  Gnorm:      0.312405  CPU:    2.332
  Cycle:     44 Energy:      -638.097443  Gnorm:      0.362095  CPU:    2.383
  Cycle:     45 Energy:      -638.433956  Gnorm:      0.355870  CPU:    2.445
  Cycle:     46 Energy:      -638.873113  Gnorm:      0.423028  CPU:    2.507
  Cycle:     47 Energy:      -639.133780  Gnorm:      0.398782  CPU:    2.559
  Cycle:     48 Energy:      -639.381506  Gnorm:      0.332756  CPU:    2.621
  Cycle:     49 Energy:      -639.636260  Gnorm:      0.328881  CPU:    2.683
  Cycle:     50 Energy:      -639.747156  Gnorm:      0.284271  CPU:    2.735
  Cycle:     51 Energy:      -639.971776  Gnorm:      0.272719  CPU:    2.797
  Cycle:     52 Energy:      -640.124682  Gnorm:      0.232184  CPU:    2.848
  Cycle:     53 Energy:      -640.284765  Gnorm:      0.283077  CPU:    2.933
  Cycle:     54 Energy:      -640.415640  Gnorm:      0.263743  CPU:    3.005
  Cycle:     55 Energy:      -640.584310  Gnorm:      0.254545  CPU:    3.095
  Cycle:     56 Energy:      -640.757698  Gnorm:      0.297798  CPU:    3.185
  Cycle:     57 Energy:      -640.880492  Gnorm:      0.266558  CPU:    3.259
  Cycle:     58 Energy:      -641.027873  Gnorm:      0.242264  CPU:    3.349
  Cycle:     59 Energy:      -641.158410  Gnorm:      0.223963  CPU:    3.439
  Cycle:     60 Energy:      -641.223564  Gnorm:      0.208490  CPU:    3.512
  Cycle:     61 Energy:      -641.319006  Gnorm:      0.199424  CPU:    3.602
  Cycle:     62 Energy:      -641.400696  Gnorm:      0.197197  CPU:    3.692
  Cycle:     63 Energy:      -641.466554  Gnorm:      0.173390  CPU:    3.765
  Cycle:     64 Energy:      -641.536250  Gnorm:      0.176064  CPU:    3.838
  Cycle:     65 Energy:      -641.620943  Gnorm:      0.189374  CPU:    3.901
  Cycle:     66 Energy:      -641.731790  Gnorm:      0.180504  CPU:    3.963
  Cycle:     67 Energy:      -641.893675  Gnorm:      0.264022  CPU:    4.026
  Cycle:     68 Energy:      -642.005177  Gnorm:      0.267626  CPU:    4.077
  Cycle:     69 Energy:      -642.122508  Gnorm:      0.251087  CPU:    4.128
  Cycle:     70 Energy:      -642.179474  Gnorm:      0.187444  CPU:    4.180
  Cycle:     71 Energy:      -642.282916  Gnorm:      0.203501  CPU:    4.242
  Cycle:     72 Energy:      -642.370210  Gnorm:      0.150647  CPU:    4.294
  Cycle:     73 Energy:      -642.432822  Gnorm:      0.167711  CPU:    4.356
  Cycle:     74 Energy:      -642.485236  Gnorm:      0.159508  CPU:    4.408
  Cycle:     75 Energy:      -642.539145  Gnorm:      0.140332  CPU:    4.470
  Cycle:     76 Energy:      -642.595692  Gnorm:      0.155044  CPU:    4.533
  Cycle:     77 Energy:      -642.640774  Gnorm:      0.198191  CPU:    4.584
  Cycle:     78 Energy:      -642.742968  Gnorm:      0.213074  CPU:    4.647
  Cycle:     79 Energy:      -642.916506  Gnorm:      0.258044  CPU:    4.710
  Cycle:     80 Energy:      -643.037807  Gnorm:      0.229798  CPU:    4.762
  Cycle:     81 Energy:      -643.220231  Gnorm:      0.319341  CPU:    4.824
  Cycle:     82 Energy:      -643.402650  Gnorm:      0.324443  CPU:    4.876
  Cycle:     83 Energy:      -643.632833  Gnorm:      0.379526  CPU:    4.927
  Cycle:     84 Energy:      -643.924180  Gnorm:      0.462473  CPU:    4.991
  Cycle:     85 Energy:      -644.426611  Gnorm:      0.479624  CPU:    5.054
  Cycle:     86 Energy:      -644.892028  Gnorm:      0.435692  CPU:    5.105
  Cycle:     87 Energy:      -645.237830  Gnorm:      0.488232  CPU:    5.156
  Cycle:     88 Energy:      -645.679881  Gnorm:      0.484655  CPU:    5.219
  Cycle:     89 Energy:      -645.958155  Gnorm:      0.364010  CPU:    5.271
  Cycle:     90 Energy:      -646.115738  Gnorm:      0.342486  CPU:    5.334
  Cycle:     91 Energy:      -646.320364  Gnorm:      0.293262  CPU:    5.397
  Cycle:     92 Energy:      -646.449079  Gnorm:      0.232139  CPU:    5.448
  Cycle:     93 Energy:      -646.549716  Gnorm:      0.207775  CPU:    5.511
  Cycle:     94 Energy:      -646.618861  Gnorm:      0.163564  CPU:    5.563
  Cycle:     95 Energy:      -646.676445  Gnorm:      0.132876  CPU:    5.626
  Cycle:     96 Energy:      -646.726048  Gnorm:      0.171248  CPU:    5.689
  Cycle:     97 Energy:      -646.756903  Gnorm:      0.118541  CPU:    5.740
  Cycle:     98 Energy:      -646.783984  Gnorm:      0.115362  CPU:    5.792
  Cycle:     99 Energy:      -646.809154  Gnorm:      0.102052  CPU:    5.855
  Cycle:    100 Energy:      -646.819662  Gnorm:      0.077665  CPU:    5.907
  Cycle:    101 Energy:      -646.827632  Gnorm:      0.061956  CPU:    5.958
  Cycle:    102 Energy:      -646.837377  Gnorm:      0.071132  CPU:    6.010
  Cycle:    103 Energy:      -646.845767  Gnorm:      0.060733  CPU:    6.062
  Cycle:    104 Energy:      -646.853861  Gnorm:      0.061792  CPU:    6.125
  Cycle:    105 Energy:      -646.863079  Gnorm:      0.059731  CPU:    6.188
  Cycle:    106 Energy:      -646.871782  Gnorm:      0.060518  CPU:    6.239
  Cycle:    107 Energy:      -646.879390  Gnorm:      0.072076  CPU:    6.291
  Cycle:    108 Energy:      -646.886304  Gnorm:      0.061664  CPU:    6.342
  Cycle:    109 Energy:      -646.893134  Gnorm:      0.052167  CPU:    6.405
  Cycle:    110 Energy:      -646.896756  Gnorm:      0.044469  CPU:    6.457
  Cycle:    111 Energy:      -646.900052  Gnorm:      0.043846  CPU:    6.508
  Cycle:    112 Energy:      -646.902720  Gnorm:      0.035015  CPU:    6.560
  Cycle:    113 Energy:      -646.904600  Gnorm:      0.030742  CPU:    6.611
  Cycle:    114 Energy:      -646.906512  Gnorm:      0.030477  CPU:    6.663
  Cycle:    115 Energy:      -646.908421  Gnorm:      0.026337  CPU:    6.715
  Cycle:    116 Energy:      -646.910571  Gnorm:      0.030111  CPU:    6.766
  Cycle:    117 Energy:      -646.912947  Gnorm:      0.029216  CPU:    6.818
  Cycle:    118 Energy:      -646.915833  Gnorm:      0.036840  CPU:    6.869
  Cycle:    119 Energy:      -646.924909  Gnorm:      0.082484  CPU:    6.932
  Cycle:    120 Energy:      -646.930762  Gnorm:      0.044975  CPU:    6.984
  Cycle:    121 Energy:      -646.933331  Gnorm:      0.040180  CPU:    7.036
  Cycle:    122 Energy:      -646.935820  Gnorm:      0.028916  CPU:    7.087
  Cycle:    123 Energy:      -646.937984  Gnorm:      0.034287  CPU:    7.139
  Cycle:    124 Energy:      -646.940141  Gnorm:      0.032838  CPU:    7.191
  Cycle:    125 Energy:      -646.942598  Gnorm:      0.032268  CPU:    7.242
  Cycle:    126 Energy:      -646.945614  Gnorm:      0.036977  CPU:    7.294
  Cycle:    127 Energy:      -646.949626  Gnorm:      0.051131  CPU:    7.357
  Cycle:    128 Energy:      -646.954169  Gnorm:      0.062083  CPU:    7.408
  Cycle:    129 Energy:      -646.962195  Gnorm:      0.075610  CPU:    7.460
  Cycle:    130 Energy:      -646.966527  Gnorm:      0.051360  CPU:    7.512
  Cycle:    131 Energy:      -646.973250  Gnorm:      0.061019  CPU:    7.575
  Cycle:    132 Energy:      -646.980605  Gnorm:      0.057027  CPU:    7.626
  Cycle:    133 Energy:      -646.986594  Gnorm:      0.047773  CPU:    7.678
  Cycle:    134 Energy:      -646.990899  Gnorm:      0.050194  CPU:    7.741
  Cycle:    135 Energy:      -646.998020  Gnorm:      0.058589  CPU:    7.793
  Cycle:    136 Energy:      -647.004280  Gnorm:      0.065716  CPU:    7.844
  Cycle:    137 Energy:      -647.011030  Gnorm:      0.068129  CPU:    7.896
  Cycle:    138 Energy:      -647.028799  Gnorm:      0.112919  CPU:    7.959
  Cycle:    139 Energy:      -647.117564  Gnorm:      0.350117  CPU:    8.034
  Cycle:    140 Energy:      -647.254652  Gnorm:      0.237629  CPU:    8.109
  Cycle:    141 Energy:      -647.345651  Gnorm:      0.177131  CPU:    8.172
  Cycle:    142 Energy:      -647.393005  Gnorm:      0.170155  CPU:    8.224
  Cycle:    143 Energy:      -647.440357  Gnorm:      0.157076  CPU:    8.287
  Cycle:    144 Energy:      -647.494739  Gnorm:      0.170537  CPU:    8.351
  Cycle:    145 Energy:      -647.562717  Gnorm:      0.159252  CPU:    8.415
  Cycle:    146 Energy:      -647.657232  Gnorm:      0.228537  CPU:    8.478
  Cycle:    147 Energy:      -647.785285  Gnorm:      0.292501  CPU:    8.541
  Cycle:    148 Energy:      -647.907977  Gnorm:      0.276272  CPU:    8.593
  Cycle:    149 Energy:      -648.049869  Gnorm:      0.237390  CPU:    8.656
  Cycle:    150 Energy:      -648.144035  Gnorm:      0.250044  CPU:    8.719
  Cycle:    151 Energy:      -648.240553  Gnorm:      0.245615  CPU:    8.782
  Cycle:    152 Energy:      -648.396907  Gnorm:      0.195415  CPU:    8.846
  Cycle:    153 Energy:      -648.472518  Gnorm:      0.169070  CPU:    8.897
  Cycle:    154 Energy:      -648.536376  Gnorm:      0.161790  CPU:    8.961
  Cycle:    155 Energy:      -648.578264  Gnorm:      0.133765  CPU:    9.012
  Cycle:    156 Energy:      -648.616044  Gnorm:      0.126948  CPU:    9.076
  Cycle:    157 Energy:      -648.640102  Gnorm:      0.135235  CPU:    9.128
  Cycle:    158 Energy:      -648.685702  Gnorm:      0.143456  CPU:    9.191
  Cycle:    159 Energy:      -648.739772  Gnorm:      0.167816  CPU:    9.255
  Cycle:    160 Energy:      -648.773140  Gnorm:      0.115826  CPU:    9.307
  Cycle:    161 Energy:      -648.810550  Gnorm:      0.131232  CPU:    9.370
  Cycle:    162 Energy:      -648.830978  Gnorm:      0.112940  CPU:    9.422
  Cycle:    163 Energy:      -648.864674  Gnorm:      0.111691  CPU:    9.486
  Cycle:    164 Energy:      -648.901263  Gnorm:      0.128336  CPU:    9.550
  Cycle:    165 Energy:      -648.935847  Gnorm:      0.149639  CPU:    9.602
  Cycle:    166 Energy:      -648.978005  Gnorm:      0.163853  CPU:    9.654
  Cycle:    167 Energy:      -649.040673  Gnorm:      0.158115  CPU:    9.718
  Cycle:    168 Energy:      -649.088201  Gnorm:      0.158131  CPU:    9.770
  Cycle:    169 Energy:      -649.137821  Gnorm:      0.154697  CPU:    9.852
  Cycle:    170 Energy:      -649.170990  Gnorm:      0.141398  CPU:    9.927
  Cycle:    171 Energy:      -649.202517  Gnorm:      0.130570  CPU:    9.991
  Cycle:    172 Energy:      -649.243756  Gnorm:      0.142876  CPU:   10.054
  Cycle:    173 Energy:      -649.275460  Gnorm:      0.113413  CPU:   10.107
  Cycle:    174 Energy:      -649.300804  Gnorm:      0.089805  CPU:   10.170
  Cycle:    175 Energy:      -649.319440  Gnorm:      0.075332  CPU:   10.234
  Cycle:    176 Energy:      -649.334066  Gnorm:      0.063121  CPU:   10.286
  Cycle:    177 Energy:      -649.342805  Gnorm:      0.082054  CPU:   10.339
  Cycle:    178 Energy:      -649.352325  Gnorm:      0.064413  CPU:   10.391
  Cycle:    179 Energy:      -649.368049  Gnorm:      0.106094  CPU:   10.444
  Cycle:    180 Energy:      -649.377265  Gnorm:      0.056248  CPU:   10.496
  Cycle:    181 Energy:      -649.383488  Gnorm:      0.067031  CPU:   10.548
  Cycle:    182 Energy:      -649.391390  Gnorm:      0.054748  CPU:   10.604
  Cycle:    183 Energy:      -649.400266  Gnorm:      0.064799  CPU:   10.669
  Cycle:    184 Energy:      -649.408587  Gnorm:      0.068958  CPU:   10.729
  Cycle:    185 Energy:      -649.420236  Gnorm:      0.069723  CPU:   10.793
  Cycle:    186 Energy:      -649.431277  Gnorm:      0.088560  CPU:   10.861
  Cycle:    187 Energy:      -649.443184  Gnorm:      0.074267  CPU:   10.913
  Cycle:    188 Energy:      -649.454371  Gnorm:      0.067506  CPU:   10.969
  Cycle:    189 Energy:      -649.466397  Gnorm:      0.069408  CPU:   11.022
  Cycle:    190 Energy:      -649.473247  Gnorm:      0.062564  CPU:   11.078
  Cycle:    191 Energy:      -649.479258  Gnorm:      0.052552  CPU:   11.131
  Cycle:    192 Energy:      -649.485475  Gnorm:      0.065316  CPU:   11.199
  Cycle:    193 Energy:      -649.492253  Gnorm:      0.047897  CPU:   11.251
  Cycle:    194 Energy:      -649.496929  Gnorm:      0.039721  CPU:   11.319
  Cycle:    195 Energy:      -649.500093  Gnorm:      0.034211  CPU:   11.372
  Cycle:    196 Energy:      -649.502460  Gnorm:      0.032687  CPU:   11.428
  Cycle:    197 Energy:      -649.504108  Gnorm:      0.032428  CPU:   11.481
  Cycle:    198 Energy:      -649.506006  Gnorm:      0.030344  CPU:   11.537
  Cycle:    199 Energy:      -649.509065  Gnorm:      0.038037  CPU:   11.590
  Cycle:    200 Energy:      -649.511092  Gnorm:      0.030590  CPU:   11.646
  Cycle:    201 Energy:      -649.512605  Gnorm:      0.028543  CPU:   11.699
  Cycle:    202 Energy:      -649.514019  Gnorm:      0.025939  CPU:   11.755
  Cycle:    203 Energy:      -649.515246  Gnorm:      0.029155  CPU:   11.808
  Cycle:    204 Energy:      -649.517549  Gnorm:      0.027834  CPU:   11.876
  Cycle:    205 Energy:      -649.519487  Gnorm:      0.029623  CPU:   11.928
  Cycle:    206 Energy:      -649.522548  Gnorm:      0.034785  CPU:   11.996
  Cycle:    207 Energy:      -649.524951  Gnorm:      0.028421  CPU:   12.049
  Cycle:    208 Energy:      -649.526844  Gnorm:      0.033971  CPU:   12.105
  Cycle:    209 Energy:      -649.528574  Gnorm:      0.037351  CPU:   12.157
  Cycle:    210 Energy:      -649.529986  Gnorm:      0.029383  CPU:   12.214
  Cycle:    211 Energy:      -649.531384  Gnorm:      0.024601  CPU:   12.266
  Cycle:    212 Energy:      -649.532954  Gnorm:      0.026275  CPU:   12.323
  Cycle:    213 Energy:      -649.534559  Gnorm:      0.021564  CPU:   12.375
  Cycle:    214 Energy:      -649.535520  Gnorm:      0.017485  CPU:   12.432
  Cycle:    215 Energy:      -649.536404  Gnorm:      0.017990  CPU:   12.484
  Cycle:    216 Energy:      -649.536965  Gnorm:      0.015948  CPU:   12.541
  Cycle:    217 Energy:      -649.537433  Gnorm:      0.015972  CPU:   12.593
  Cycle:    218 Energy:      -649.538065  Gnorm:      0.020557  CPU:   12.649
  Cycle:    219 Energy:      -649.538802  Gnorm:      0.024192  CPU:   12.702
  Cycle:    220 Energy:      -649.539419  Gnorm:      0.018806  CPU:   12.758
  Cycle:    221 Energy:      -649.540008  Gnorm:      0.016023  CPU:   12.811
  Cycle:    222 Energy:      -649.540444  Gnorm:      0.014406  CPU:   12.867
  Cycle:    223 Energy:      -649.540878  Gnorm:      0.016116  CPU:   12.919
  Cycle:    224 Energy:      -649.541603  Gnorm:      0.015661  CPU:   12.976
  Cycle:    225 Energy:      -649.542278  Gnorm:      0.018075  CPU:   13.028
  Cycle:    226 Energy:      -649.543450  Gnorm:      0.021301  CPU:   13.084
  Cycle:    227 Energy:      -649.544528  Gnorm:      0.020065  CPU:   13.137
  Cycle:    228 Energy:      -649.545607  Gnorm:      0.020697  CPU:   13.205
  Cycle:    229 Energy:      -649.547469  Gnorm:      0.048054  CPU:   13.269
  Cycle:    230 Energy:      -649.548957  Gnorm:      0.021852  CPU:   13.325
  Cycle:    231 Energy:      -649.549871  Gnorm:      0.019991  CPU:   13.378
  Cycle:    232 Energy:      -649.550910  Gnorm:      0.020325  CPU:   13.434
  Cycle:    233 Energy:      -649.551804  Gnorm:      0.021014  CPU:   13.487
  Cycle:    234 Energy:      -649.552530  Gnorm:      0.014679  CPU:   13.543
  Cycle:    235 Energy:      -649.553182  Gnorm:      0.015650  CPU:   13.607
  Cycle:    236 Energy:      -649.553764  Gnorm:      0.012828  CPU:   13.663
  Cycle:    237 Energy:      -649.554187  Gnorm:      0.016210  CPU:   13.716
  Cycle:    238 Energy:      -649.554779  Gnorm:      0.020503  CPU:   13.784
  Cycle:    239 Energy:      -649.555469  Gnorm:      0.021760  CPU:   13.836
  Cycle:    240 Energy:      -649.555949  Gnorm:      0.018057  CPU:   13.893
  Cycle:    241 Energy:      -649.556599  Gnorm:      0.016309  CPU:   13.957
  Cycle:    242 Energy:      -649.557039  Gnorm:      0.013564  CPU:   14.013
  Cycle:    243 Energy:      -649.557601  Gnorm:      0.015188  CPU:   14.065
  Cycle:    244 Energy:      -649.558339  Gnorm:      0.014724  CPU:   14.121
  Cycle:    245 Energy:      -649.559304  Gnorm:      0.019680  CPU:   14.174
  Cycle:    246 Energy:      -649.560249  Gnorm:      0.023747  CPU:   14.230
  Cycle:    247 Energy:      -649.561039  Gnorm:      0.021780  CPU:   14.283
  Cycle:    248 Energy:      -649.562061  Gnorm:      0.022602  CPU:   14.351
  Cycle:    249 Energy:      -649.564318  Gnorm:      0.051406  CPU:   14.415
  Cycle:    250 Energy:      -649.566254  Gnorm:      0.021202  CPU:   14.472
  Cycle:    251 Energy:      -649.567442  Gnorm:      0.019493  CPU:   14.524
  Cycle:    252 Energy:      -649.568191  Gnorm:      0.021771  CPU:   14.580
  Cycle:    253 Energy:      -649.568873  Gnorm:      0.019680  CPU:   14.633
  Cycle:    254 Energy:      -649.569685  Gnorm:      0.015368  CPU:   14.701
  Cycle:    255 Energy:      -649.570494  Gnorm:      0.014617  CPU:   14.753
  Cycle:    256 Energy:      -649.570951  Gnorm:      0.013826  CPU:   14.810
  Cycle:    257 Energy:      -649.571484  Gnorm:      0.016736  CPU:   14.862
  Cycle:    258 Energy:      -649.572175  Gnorm:      0.015083  CPU:   14.919
  Cycle:    259 Energy:      -649.572776  Gnorm:      0.026421  CPU:   14.971
  Cycle:    260 Energy:      -649.573294  Gnorm:      0.014593  CPU:   15.028
  Cycle:    261 Energy:      -649.573838  Gnorm:      0.018379  CPU:   15.080
  Cycle:    262 Energy:      -649.574352  Gnorm:      0.014356  CPU:   15.136
  Cycle:    263 Energy:      -649.574746  Gnorm:      0.013425  CPU:   15.189
  Cycle:    264 Energy:      -649.575226  Gnorm:      0.016376  CPU:   15.245
  Cycle:    265 Energy:      -649.575818  Gnorm:      0.016567  CPU:   15.309
  Cycle:    266 Energy:      -649.576356  Gnorm:      0.020022  CPU:   15.366
  Cycle:    267 Energy:      -649.577012  Gnorm:      0.016120  CPU:   15.418
  Cycle:    268 Energy:      -649.577753  Gnorm:      0.017826  CPU:   15.487
  Cycle:    269 Energy:      -649.578711  Gnorm:      0.022021  CPU:   15.551
  Cycle:    270 Energy:      -649.579411  Gnorm:      0.018485  CPU:   15.607
  Cycle:    271 Energy:      -649.579956  Gnorm:      0.014759  CPU:   15.660
  Cycle:    272 Energy:      -649.580343  Gnorm:      0.017639  CPU:   15.716
  Cycle:    273 Energy:      -649.581007  Gnorm:      0.014705  CPU:   15.780
  Cycle:    274 Energy:      -649.581438  Gnorm:      0.015738  CPU:   15.837
  Cycle:    275 Energy:      -649.581912  Gnorm:      0.012032  CPU:   15.889
  Cycle:    276 Energy:      -649.582226  Gnorm:      0.010788  CPU:   15.946
  Cycle:    277 Energy:      -649.582616  Gnorm:      0.017100  CPU:   15.998
  Cycle:    278 Energy:      -649.583075  Gnorm:      0.015254  CPU:   16.055
  Cycle:    279 Energy:      -649.583439  Gnorm:      0.015804  CPU:   16.107
  Cycle:    280 Energy:      -649.583653  Gnorm:      0.011580  CPU:   16.164
  Cycle:    281 Energy:      -649.584020  Gnorm:      0.014580  CPU:   16.216
  Cycle:    282 Energy:      -649.584404  Gnorm:      0.009323  CPU:   16.273
  ** Hessian has required structure
  Cycle:    283 Energy:      -649.589445  Gnorm:      0.006957  CPU:   16.488
  ** Hessian has required structure
  Cycle:    284 Energy:      -649.594033  Gnorm:      0.004965  CPU:   16.583
  ** Hessian has required structure
  Cycle:    285 Energy:      -649.595769  Gnorm:      0.003107  CPU:   16.670
  ** Hessian has required structure
  Cycle:    286 Energy:      -649.595816  Gnorm:      0.000492  CPU:   16.741
  ** Hessian has required structure


  **** Optimisation achieved ****


  Final enthalpy =    -649.59581922 eV      
  Final Gnorm    =       0.00010208

  Components of enthalpy : 

--------------------------------------------------------------------------------
  Interatomic potentials     =         217.72557784 eV    
  Monopole - monopole (real) =        -502.87047415 eV    
  Monopole - monopole (recip)=        -491.30910792 eV    
  Monopole - monopole (total)=        -994.17958207 eV    
  Pressure*volume            =         126.85818501 eV    
--------------------------------------------------------------------------------
  Total lattice enthalpy     =        -649.59581922 eV    
--------------------------------------------------------------------------------
  Total lattice enthalpy     =          -62676.0666 kJ/(mole unit cells)
--------------------------------------------------------------------------------

  Final fractional coordinates of atoms :

--------------------------------------------------------------------------------
   No.  Atomic        x           y          z          Radius
        Label       (Frac)      (Frac)     (Frac)       (Angs) 
--------------------------------------------------------------------------------
     1  Al    c     0.069455    0.394298    0.441273    0.000000
     2  Al    c     0.144707    0.688589    0.145499    0.000000
     3  Al    c     0.646460    0.689848    0.145989    0.000000
     4  Al    c     0.567428    0.404130    0.926663    0.000000
     5  Al    c     0.681564    0.047196    0.288361    0.000000
     6  Al    c     0.945871    0.053782    0.785390    0.000000
     7  Al    c     0.188493    0.033793    0.289171    0.000000
     8  Al    c     0.444184    0.054521    0.789579    0.000000
     9  Mg    c     0.129984    0.715002    0.641037    0.000000
    10  Mg    c     0.631674    0.715083    0.640665    0.000000
    11  Mg    c     0.572281    0.388093    0.435768    0.000000
    12  Mg    c     0.073893    0.395607    0.936966    0.000000
    13  O     c     0.140067    0.150232    0.946419    0.000000
    14  O     c     0.261003    0.932753    0.645683    0.000000
    15  O     c     0.518840    0.924549    0.146990    0.000000
    16  O     c     0.804839    0.418639    0.681946    0.000000
    17  O     c     0.800810    0.433621    0.179268    0.000000
    18  O     c     0.747422    0.941537    0.632784    0.000000
    19  O     c     0.401356    0.680880    0.371081    0.000000
    20  O     c     0.300118    0.425443    0.678629    0.000000
    21  O     c     0.304491    0.435339    0.174243    0.000000
    22  O     c     0.903469    0.674674    0.924848    0.000000
    23  O     c     0.918273    0.651477    0.383533    0.000000
    24  O     c     0.419881    0.651981    0.921713    0.000000
    25  O     c     0.339328    0.171235    0.435349    0.000000
    26  O     c     0.006501    0.921420    0.137345    0.000000
    27  O     c     0.869096    0.153599    0.433103    0.000000
    28  O     c     0.633228    0.171828    0.940492    0.000000
--------------------------------------------------------------------------------

  Final Cartesian lattice vectors (Angstroms) :

        5.191468    1.010325   -0.020393
        1.701974    7.901944    0.316275
       -0.023818    0.234306    5.181649


  Final cell parameters and derivatives :

--------------------------------------------------------------------------------
       a            5.288905 Angstrom     dE/de1(xx)    -0.000440 eV/strain
       b            8.089343 Angstrom     dE/de2(yy)     0.000771 eV/strain
       c            5.186998 Angstrom     dE/de3(zz)     0.000843 eV/strain
       alpha       85.284008 Degrees      dE/de4(yz)     0.000137 eV/strain
       beta        89.984524 Degrees      dE/de5(xz)     0.000338 eV/strain
       gamma       66.860440 Degrees      dE/de6(xy)    -0.003070 eV/strain
--------------------------------------------------------------------------------

  Primitive cell volume =           203.250789 Angs**3

  Density of cell =      4.649402 g/cm**3

  Non-primitive cell volume =           203.250789 Angs**3


  Final internal derivatives :

--------------------------------------------------------------------------------
   No.  Atomic          a             b             c           Radius
        Label          (eV)          (eV)          (eV)        (eV/Angs)
--------------------------------------------------------------------------------
      1 Al    c       0.000000      0.000000      0.000000      0.000000
      2 Al    c      -0.000749     -0.000175     -0.000120      0.000000
      3 Al    c       0.000557      0.000170      0.000050      0.000000
      4 Al    c      -0.000035     -0.001745      0.000026      0.000000
      5 Al    c       0.001823      0.002048      0.000313      0.000000
      6 Al    c      -0.000575     -0.001041     -0.000131      0.000000
      7 Al    c       0.000749      0.001962      0.000559      0.000000
      8 Al    c      -0.001756     -0.001236     -0.000230      0.000000
      9 Mg    c      -0.000516      0.000037      0.000125      0.000000
     10 Mg    c       0.000403      0.000617     -0.000211      0.000000
     11 Mg    c      -0.001476     -0.000383     -0.000293      0.000000
     12 Mg    c      -0.000094     -0.001369     -0.000042      0.000000
     13 O     c      -0.000864      0.000730      0.000306      0.000000
     14 O     c      -0.000068     -0.000925      0.000064      0.000000
     15 O     c       0.000355      0.000539      0.000040      0.000000
     16 O     c       0.000413      0.000893     -0.000144      0.000000
     17 O     c       0.000339      0.000159     -0.000157      0.000000
     18 O     c      -0.000446      0.000618     -0.000220      0.000000
     19 O     c      -0.000460      0.000107     -0.000028      0.000000
     20 O     c       0.002204      0.002696      0.000165      0.000000
     21 O     c       0.001799      0.001417      0.000203      0.000000
     22 O     c       0.000298      0.000296      0.000036      0.000000
     23 O     c       0.000079     -0.000191      0.000022      0.000000
     24 O     c       0.000141      0.000069      0.000076      0.000000
     25 O     c       0.000571     -0.001157     -0.000239      0.000000
     26 O     c      -0.000043     -0.000508     -0.000001      0.000000
     27 O     c      -0.002826     -0.002231     -0.000925      0.000000
     28 O     c      -0.001169     -0.000464      0.000700      0.000000
--------------------------------------------------------------------------------
  Maximum abs         0.002826      0.002696      0.000925      0.000000
--------------------------------------------------------------------------------


  Time to end of optimisation =      16.8124 seconds


  Peak dynamic memory used =       2.03 MB 


  Timing analysis for GULP :

--------------------------------------------------------------------------------
  Task / Subroutine                                          Time (Seconds)
--------------------------------------------------------------------------------
  Calculation of reciprocal space energy and derivatives          0.8603
  Calculation of real space energy and derivatives               15.7853
  Calculation and manipulation of Hessian matrix                  0.0971
  Global summation overhead                                       0.0018
--------------------------------------------------------------------------------
  Total CPU time                                                 16.8124
--------------------------------------------------------------------------------


  Job Finished at 15:53.32 11th June       2024                               

