********************************************************************************
*                       GENERAL UTILITY LATTICE PROGRAM                        *
*                                 Julian Gale                                  *
*                       Curtin Institute for Computation                       *
*                    School of Molecular and Life Sciences                     *
*                    Curtin University, Western Australia                      *
********************************************************************************
* Version = 6.0.0 * Last modified =  12th July 2021                            *
********************************************************************************
*  optimise     - perform optimisation run                                     *
*  conp         - constant pressure calculation                                *
*  nosymmetry   - turn off symmetry after initial structure generation         *
*  conjugate    - use conjugate gradients minimiser                            *
********************************************************************************

  Job Started  at 15:54.52 11th June       2024                               

  Number of CPUs =     1


  Total number of configurations input =      1

********************************************************************************
*  Input for Configuration =   1                                               *
********************************************************************************

  Formula = Al8Mg4O16                                                   

  Number of irreducible atoms/shells =      28


  Total number atoms/shells =      28

  Dimensionality = 3               :  Bulk   



  Cartesian lattice vectors (Angstroms) :

        6.037412    0.000000   -4.244854
        0.000000    6.023802    0.000000
        0.000000    0.000000    5.724137

  Cell parameters (Angstroms/Degrees):

  a =       7.3803    alpha =  90.0000
  b =       6.0238    beta  = 125.1107
  c =       5.7241    gamma =  90.0000

  Initial cell volume =         208.176407 Angs**3

  Temperature of configuration =   0.00     K 

  Pressure of configuration =       100.000 GPa 

  Fractional coordinates of asymmetric unit :

--------------------------------------------------------------------------------
   No.  Atomic       x           y          z         Charge      Occupancy
        Label      (Frac)      (Frac)     (Frac)        (e)         (Frac)  
--------------------------------------------------------------------------------
      1 Al    c    0.169175    0.080543    0.207203     3.00000    1.000000    
      2 Al    c    0.169175 *  0.149433 *  0.822191 *   3.00000    1.000000    
      3 Al    c    0.784163 *  0.695531 *  0.207203 *   3.00000    1.000000    
      4 Al    c    0.784163 *  0.534445 *  0.822191 *   3.00000    1.000000    
      5 Al    c    0.836846 *  0.934727 *  0.047489 *   3.00000    1.000000    
      6 Al    c    0.836846 *  0.295249 *  0.662477 *   3.00000    1.000000    
      7 Al    c    0.221858 *  0.319739 *  0.047489 *   3.00000    1.000000    
      8 Al    c    0.221858 *  0.910237 *  0.662477 *   3.00000    1.000000    
      9 Mg    c    0.000838 *  0.269109 *  0.485837 *   2.00000    1.000000    
     10 Mg    c    0.000838 *  0.960867 *  0.100825 *   2.00000    1.000000    
     11 Mg    c    0.615826 *  0.884097 *  0.485837 *   2.00000    1.000000    
     12 Mg    c    0.615826 *  0.345879 *  0.100825 *   2.00000    1.000000    
     13 O     c    0.858880 *  0.203830 *  0.238215 *  -2.00000    1.000000    
     14 O     c    0.858880 *  0.026146 *  0.853203 *  -2.00000    1.000000    
     15 O     c    0.243892 *  0.588842 *  0.238215 *  -2.00000    1.000000    
     16 O     c    0.243892 *  0.641134 *  0.853203 *  -2.00000    1.000000    
     17 O     c    0.838160 *  0.047086 *  0.883201 *  -2.00000    1.000000    
     18 O     c    0.838160 *  0.182890 *  0.268213 *  -2.00000    1.000000    
     19 O     c    0.223172 *  0.432098 *  0.883201 *  -2.00000    1.000000    
     20 O     c    0.223172 *  0.797878 *  0.268213 *  -2.00000    1.000000    
     21 O     c    0.500215 *  0.086195 *  0.358728 *  -2.00000    1.000000    
     22 O     c    0.500215 *  0.143781 *  0.973716 *  -2.00000    1.000000    
     23 O     c    0.115203 *  0.701183 *  0.358728 *  -2.00000    1.000000    
     24 O     c    0.115203 *  0.528793 *  0.973716 *  -2.00000    1.000000    
     25 O     c    0.897551 *  0.114894 *  0.589230 *  -2.00000    1.000000    
     26 O     c    0.897551 *  0.115082 *  0.204218 *  -2.00000    1.000000    
     27 O     c    0.282563 *  0.499906 *  0.589230 *  -2.00000    1.000000    
     28 O     c    0.282563 *  0.730070 *  0.204218 *  -2.00000    1.000000    
--------------------------------------------------------------------------------



********************************************************************************
*  General input information                                                   *
********************************************************************************

  Species output for all configurations : 

--------------------------------------------------------------------------------
  Species    Type    Atomic    Atomic    Charge       Radii (Angs)     Library
                     Number     Mass       (e)     Cova   Ionic  VDW   Symbol
--------------------------------------------------------------------------------
    Mg       Core       12      24.31   2.000000   1.100  0.000  1.640          
    Al       Core       13      26.98   3.000000   1.350  0.000  2.050          
    O        Core        8      16.00  -2.000000   0.730  0.000  1.360          
--------------------------------------------------------------------------------


  Lattice summation method               =    Ewald          (3-D)
                                         =    Parry          (2-D)
                                         =    Saunders et al (1-D)
  Accuracy factor for lattice sums       =   12.000


  Analytic derivatives to be used

  Time limit = Infinity

  Maximum range for interatomic potentials =    100000.000000 Angstroms

  General interatomic potentials :

--------------------------------------------------------------------------------
Atom  Types   Potential      Parameter       Value         Units   Cutoffs(Ang)
  1     2                                                            Min /  Max 
--------------------------------------------------------------------------------
O    c Mg   c Lennard       Lennard-Jones A  1.5000000    eV*Ang^m  0.000  6.000
                            Lennard-Jones B  0.0000000    eV*Ang^n  
                            Exponent m        12          None
                            Exponent n         6          None
--------------------------------------------------------------------------------
O    c Al   c Lennard       Lennard-Jones A  1.5000000    eV*Ang^m  0.000  6.000
                            Lennard-Jones B  0.0000000    eV*Ang^n  
                            Exponent m        12          None
                            Exponent n         6          None
--------------------------------------------------------------------------------
O    c O    c Lennard       Lennard-Jones A  1.5000000    eV*Ang^m  0.000  6.000
                            Lennard-Jones B  0.0000000    eV*Ang^n  
                            Exponent m        12          None
                            Exponent n         6          None
--------------------------------------------------------------------------------
Mg   c Mg   c Lennard       Lennard-Jones A  1.5000000    eV*Ang^m  0.000  6.000
                            Lennard-Jones B  0.0000000    eV*Ang^n  
                            Exponent m        12          None
                            Exponent n         6          None
--------------------------------------------------------------------------------
Mg   c Al   c Lennard       Lennard-Jones A  1.5000000    eV*Ang^m  0.000  6.000
                            Lennard-Jones B  0.0000000    eV*Ang^n  
                            Exponent m        12          None
                            Exponent n         6          None
--------------------------------------------------------------------------------
Al   c Al   c Lennard       Lennard-Jones A  1.5000000    eV*Ang^m  0.000  6.000
                            Lennard-Jones B  0.0000000    eV*Ang^n  
                            Exponent m        12          None
                            Exponent n         6          None
--------------------------------------------------------------------------------
O    c Mg   c Buckingham    Buckingham A     1428.5000    eV        0.000  7.000
                            Buckingham rho  0.29450000    Ang       
                            Buckingham C     0.0000000    eV*Ang^6  
--------------------------------------------------------------------------------
O    c Al   c Buckingham    Buckingham A     1114.9000    eV        0.000  7.000
                            Buckingham rho  0.31180000    Ang       
                            Buckingham C     0.0000000    eV*Ang^6  
--------------------------------------------------------------------------------
O    c O    c Buckingham    Buckingham A     2023.8000    eV        0.000  7.000
                            Buckingham rho  0.26740000    Ang       
                            Buckingham C     0.0000000    eV*Ang^6  
--------------------------------------------------------------------------------

********************************************************************************
*  Output for configuration   1                                                *
********************************************************************************


  Components of enthalpy : 

--------------------------------------------------------------------------------
  Interatomic potentials     =     3191588.14502460 eV    
  Monopole - monopole (real) =         289.43517854 eV    
  Monopole - monopole (recip)=        -449.54618793 eV    
  Monopole - monopole (total)=        -160.11100939 eV    
  Pressure*volume            =         129.93249045 eV    
--------------------------------------------------------------------------------
  Total lattice enthalpy     =     3191557.96650566 eV    
--------------------------------------------------------------------------------
  Total lattice enthalpy     =       307936556.3361 kJ/(mole unit cells)
--------------------------------------------------------------------------------


  Number of variables =       87

  Maximum number of calculations  =           850
  Maximum Hessian update interval =            10
  Maximum step size               =   1.000000000
  Maximum parameter tolerance     =   0.000010000
  Maximum function  tolerance     =   0.000010000
  Maximum gradient  tolerance     =   0.001000000
  Maximum gradient  component     =   0.010000000

  Cell parameters to be optimised using strains

  Conjugate gradient optimiser to be used

  Lower half triangular hessian to be used

  Minimiser to switch to RFO
  When gradient norm is less than     0.010000

  Start of bulk optimisation :

  Cycle:      0 Energy:   3191557.966506  Gnorm:**************  CPU:    0.045
  Cycle:      1 Energy:       334.850924  Gnorm:     99.252114  CPU:    0.165
  Cycle:      2 Energy:      -222.707624  Gnorm:     20.370937  CPU:    0.245
  Cycle:      3 Energy:      -364.579255  Gnorm:     12.748420  CPU:    0.341
  Cycle:      4 Energy:      -436.374674  Gnorm:      8.550333  CPU:    0.420
  Cycle:      5 Energy:      -493.358833  Gnorm:      7.565349  CPU:    0.505
  Cycle:      6 Energy:      -523.198229  Gnorm:      4.374651  CPU:    0.574
  Cycle:      7 Energy:      -545.631669  Gnorm:      4.377729  CPU:    0.644
  Cycle:      8 Energy:      -563.366649  Gnorm:      3.629906  CPU:    0.718
  Cycle:      9 Energy:      -579.389702  Gnorm:      3.007734  CPU:    0.789
  Cycle:     10 Energy:      -587.886567  Gnorm:      2.357034  CPU:    0.864
  Cycle:     11 Energy:      -597.855503  Gnorm:      2.408162  CPU:    0.935
  Cycle:     12 Energy:      -604.779112  Gnorm:      2.390207  CPU:    0.998
  Cycle:     13 Energy:      -610.007750  Gnorm:      1.998438  CPU:    1.070
  Cycle:     14 Energy:      -614.711719  Gnorm:      2.014012  CPU:    1.179
  Cycle:     15 Energy:      -618.472372  Gnorm:      1.181471  CPU:    1.300
  Cycle:     16 Energy:      -620.399516  Gnorm:      1.327709  CPU:    1.482
  Cycle:     17 Energy:      -622.642168  Gnorm:      1.007557  CPU:    1.661
  Cycle:     18 Energy:      -623.755476  Gnorm:      0.833565  CPU:    1.802
  Cycle:     19 Energy:      -624.990837  Gnorm:      0.909238  CPU:    1.983
  Cycle:     20 Energy:      -625.621720  Gnorm:      0.621779  CPU:    2.123
  Cycle:     21 Energy:      -626.409901  Gnorm:      0.760814  CPU:    2.305
  Cycle:     22 Energy:      -627.747015  Gnorm:      0.832754  CPU:    2.482
  Cycle:     23 Energy:      -629.781082  Gnorm:      1.187120  CPU:    2.660
  Cycle:     24 Energy:      -631.459022  Gnorm:      1.201143  CPU:    2.800
  Cycle:     25 Energy:      -633.500634  Gnorm:      0.989074  CPU:    2.946
  Cycle:     26 Energy:      -635.151899  Gnorm:      0.750044  CPU:    3.128
  Cycle:     27 Energy:      -636.242059  Gnorm:      0.681161  CPU:    3.266
  Cycle:     28 Energy:      -636.972367  Gnorm:      0.637531  CPU:    3.361
  Cycle:     29 Energy:      -637.833675  Gnorm:      0.595616  CPU:    3.457
  Cycle:     30 Energy:      -638.333606  Gnorm:      0.506067  CPU:    3.549
  Cycle:     31 Energy:      -638.727057  Gnorm:      0.450926  CPU:    3.665
  Cycle:     32 Energy:      -639.207260  Gnorm:      0.429517  CPU:    3.777
  Cycle:     33 Energy:      -639.650790  Gnorm:      0.504364  CPU:    3.892
  Cycle:     34 Energy:      -640.151368  Gnorm:      0.518789  CPU:    3.986
  Cycle:     35 Energy:      -640.598032  Gnorm:      0.411055  CPU:    4.081
  Cycle:     36 Energy:      -640.864146  Gnorm:      0.330189  CPU:    4.192
  Cycle:     37 Energy:      -641.048032  Gnorm:      0.330001  CPU:    4.308
  Cycle:     38 Energy:      -641.226669  Gnorm:      0.316848  CPU:    4.423
  Cycle:     39 Energy:      -641.381011  Gnorm:      0.217983  CPU:    4.534
  Cycle:     40 Energy:      -641.438574  Gnorm:      0.188425  CPU:    4.625
  Cycle:     41 Energy:      -641.492903  Gnorm:      0.175414  CPU:    4.715
  Cycle:     42 Energy:      -641.550212  Gnorm:      0.170947  CPU:    4.825
  Cycle:     43 Energy:      -641.601679  Gnorm:      0.159575  CPU:    4.915
  Cycle:     44 Energy:      -641.648925  Gnorm:      0.173109  CPU:    5.026
  Cycle:     45 Energy:      -641.703453  Gnorm:      0.154044  CPU:    5.116
  Cycle:     46 Energy:      -641.751884  Gnorm:      0.133664  CPU:    5.227
  Cycle:     47 Energy:      -641.792175  Gnorm:      0.136331  CPU:    5.337
  Cycle:     48 Energy:      -641.832429  Gnorm:      0.148209  CPU:    5.448
  Cycle:     49 Energy:      -641.883815  Gnorm:      0.199116  CPU:    5.558
  Cycle:     50 Energy:      -641.910401  Gnorm:      0.115910  CPU:    5.648
  Cycle:     51 Energy:      -641.936267  Gnorm:      0.103102  CPU:    5.760
  Cycle:     52 Energy:      -641.959280  Gnorm:      0.114126  CPU:    5.875
  Cycle:     53 Energy:      -641.980515  Gnorm:      0.108829  CPU:    5.965
  Cycle:     54 Energy:      -642.001368  Gnorm:      0.099862  CPU:    6.076
  Cycle:     55 Energy:      -642.021532  Gnorm:      0.092854  CPU:    6.166
  Cycle:     56 Energy:      -642.041075  Gnorm:      0.098656  CPU:    6.277
  Cycle:     57 Energy:      -642.064667  Gnorm:      0.120783  CPU:    6.367
  Cycle:     58 Energy:      -642.086076  Gnorm:      0.121901  CPU:    6.457
  Cycle:     59 Energy:      -642.114592  Gnorm:      0.146226  CPU:    6.569
  Cycle:     60 Energy:      -642.135487  Gnorm:      0.107191  CPU:    6.659
  Cycle:     61 Energy:      -642.156111  Gnorm:      0.119114  CPU:    6.749
  Cycle:     62 Energy:      -642.178604  Gnorm:      0.102238  CPU:    6.840
  Cycle:     63 Energy:      -642.202357  Gnorm:      0.099850  CPU:    6.951
  Cycle:     64 Energy:      -642.228272  Gnorm:      0.117559  CPU:    7.061
  Cycle:     65 Energy:      -642.260622  Gnorm:      0.124186  CPU:    7.152
  Cycle:     66 Energy:      -642.297132  Gnorm:      0.171701  CPU:    7.262
  Cycle:     67 Energy:      -642.345868  Gnorm:      0.188050  CPU:    7.373
  Cycle:     68 Energy:      -642.457027  Gnorm:      0.278919  CPU:    7.483
  Cycle:     69 Energy:      -642.659298  Gnorm:      0.466847  CPU:    7.555
  Cycle:     70 Energy:      -642.898664  Gnorm:      0.351729  CPU:    7.627
  Cycle:     71 Energy:      -643.044612  Gnorm:      0.260024  CPU:    7.699
  Cycle:     72 Energy:      -643.239591  Gnorm:      0.335687  CPU:    7.772
  Cycle:     73 Energy:      -643.387528  Gnorm:      0.273026  CPU:    7.854
  Cycle:     74 Energy:      -643.546483  Gnorm:      0.273833  CPU:    7.946
  Cycle:     75 Energy:      -643.706541  Gnorm:      0.311906  CPU:    8.057
  Cycle:     76 Energy:      -643.884501  Gnorm:      0.236794  CPU:    8.147
  Cycle:     77 Energy:      -643.965040  Gnorm:      0.250077  CPU:    8.239
  Cycle:     78 Energy:      -644.065105  Gnorm:      0.228568  CPU:    8.350
  Cycle:     79 Energy:      -644.142166  Gnorm:      0.193023  CPU:    8.462
  Cycle:     80 Energy:      -644.180580  Gnorm:      0.158849  CPU:    8.552
  Cycle:     81 Energy:      -644.223733  Gnorm:      0.156374  CPU:    8.664
  Cycle:     82 Energy:      -644.262223  Gnorm:      0.142001  CPU:    8.775
  Cycle:     83 Energy:      -644.314049  Gnorm:      0.141179  CPU:    8.865
  Cycle:     84 Energy:      -644.338987  Gnorm:      0.107453  CPU:    8.956
  Cycle:     85 Energy:      -644.357833  Gnorm:      0.085271  CPU:    9.067
  Cycle:     86 Energy:      -644.379875  Gnorm:      0.103269  CPU:    9.154
  Cycle:     87 Energy:      -644.398180  Gnorm:      0.110450  CPU:    9.214
  Cycle:     88 Energy:      -644.425718  Gnorm:      0.100721  CPU:    9.286
  Cycle:     89 Energy:      -644.437795  Gnorm:      0.095761  CPU:    9.377
  Cycle:     90 Energy:      -644.445189  Gnorm:      0.070760  CPU:    9.467
  Cycle:     91 Energy:      -644.455316  Gnorm:      0.062222  CPU:    9.558
  Cycle:     92 Energy:      -644.462510  Gnorm:      0.066474  CPU:    9.648
  Cycle:     93 Energy:      -644.470234  Gnorm:      0.054770  CPU:    9.739
  Cycle:     94 Energy:      -644.478430  Gnorm:      0.065247  CPU:    9.850
  Cycle:     95 Energy:      -644.487692  Gnorm:      0.081536  CPU:    9.941
  Cycle:     96 Energy:      -644.499496  Gnorm:      0.064115  CPU:   10.032
  Cycle:     97 Energy:      -644.509455  Gnorm:      0.076709  CPU:   10.143
  Cycle:     98 Energy:      -644.521347  Gnorm:      0.071444  CPU:   10.234
  Cycle:     99 Energy:      -644.534678  Gnorm:      0.117364  CPU:   10.346
  Cycle:    100 Energy:      -644.543178  Gnorm:      0.059567  CPU:   10.436
  Cycle:    101 Energy:      -644.550360  Gnorm:      0.058853  CPU:   10.527
  Cycle:    102 Energy:      -644.557412  Gnorm:      0.052921  CPU:   10.617
  Cycle:    103 Energy:      -644.564286  Gnorm:      0.063396  CPU:   10.708
  Cycle:    104 Energy:      -644.571652  Gnorm:      0.056878  CPU:   10.799
  Cycle:    105 Energy:      -644.576729  Gnorm:      0.052078  CPU:   10.890
  Cycle:    106 Energy:      -644.583391  Gnorm:      0.057044  CPU:   10.980
  Cycle:    107 Energy:      -644.590099  Gnorm:      0.064100  CPU:   11.071
  Cycle:    108 Energy:      -644.596380  Gnorm:      0.056053  CPU:   11.161
  Cycle:    109 Energy:      -644.602326  Gnorm:      0.073793  CPU:   11.252
  Cycle:    110 Energy:      -644.606481  Gnorm:      0.050199  CPU:   11.343
  Cycle:    111 Energy:      -644.612388  Gnorm:      0.054513  CPU:   11.434
  Cycle:    112 Energy:      -644.616709  Gnorm:      0.050134  CPU:   11.524
  Cycle:    113 Energy:      -644.622049  Gnorm:      0.045560  CPU:   11.636
  Cycle:    114 Energy:      -644.625879  Gnorm:      0.050347  CPU:   11.726
  Cycle:    115 Energy:      -644.632166  Gnorm:      0.056086  CPU:   11.817
  Cycle:    116 Energy:      -644.637767  Gnorm:      0.053176  CPU:   11.908
  Cycle:    117 Energy:      -644.643394  Gnorm:      0.049200  CPU:   12.020
  Cycle:    118 Energy:      -644.649517  Gnorm:      0.056236  CPU:   12.132
  Cycle:    119 Energy:      -644.654459  Gnorm:      0.075338  CPU:   12.223
  Cycle:    120 Energy:      -644.658666  Gnorm:      0.050896  CPU:   12.315
  Cycle:    121 Energy:      -644.663822  Gnorm:      0.044995  CPU:   12.427
  Cycle:    122 Energy:      -644.668149  Gnorm:      0.046581  CPU:   12.518
  Cycle:    123 Energy:      -644.672436  Gnorm:      0.049421  CPU:   12.609
  Cycle:    124 Energy:      -644.677337  Gnorm:      0.045515  CPU:   12.700
  Cycle:    125 Energy:      -644.680490  Gnorm:      0.040037  CPU:   12.791
  Cycle:    126 Energy:      -644.684656  Gnorm:      0.044663  CPU:   12.882
  Cycle:    127 Energy:      -644.688658  Gnorm:      0.048181  CPU:   12.973
  Cycle:    128 Energy:      -644.693110  Gnorm:      0.037889  CPU:   13.064
  Cycle:    129 Energy:      -644.701066  Gnorm:      0.076763  CPU:   13.176
  Cycle:    130 Energy:      -644.707457  Gnorm:      0.035754  CPU:   13.267
  Cycle:    131 Energy:      -644.709776  Gnorm:      0.045653  CPU:   13.358
  Cycle:    132 Energy:      -644.712965  Gnorm:      0.038176  CPU:   13.449
  Cycle:    133 Energy:      -644.715767  Gnorm:      0.040421  CPU:   13.541
  Cycle:    134 Energy:      -644.718375  Gnorm:      0.035245  CPU:   13.632
  Cycle:    135 Energy:      -644.721715  Gnorm:      0.046643  CPU:   13.744
  Cycle:    136 Energy:      -644.725232  Gnorm:      0.043385  CPU:   13.835
  Cycle:    137 Energy:      -644.728195  Gnorm:      0.038304  CPU:   13.926
  Cycle:    138 Energy:      -644.730711  Gnorm:      0.039899  CPU:   14.017
  Cycle:    139 Energy:      -644.733559  Gnorm:      0.039743  CPU:   14.108
  Cycle:    140 Energy:      -644.735250  Gnorm:      0.032927  CPU:   14.199
  Cycle:    141 Energy:      -644.737268  Gnorm:      0.032839  CPU:   14.290
  Cycle:    142 Energy:      -644.738862  Gnorm:      0.034413  CPU:   14.381
  Cycle:    143 Energy:      -644.741962  Gnorm:      0.038677  CPU:   14.493
  Cycle:    144 Energy:      -644.744885  Gnorm:      0.033778  CPU:   14.584
  Cycle:    145 Energy:      -644.747322  Gnorm:      0.029233  CPU:   14.675
  Cycle:    146 Energy:      -644.749479  Gnorm:      0.034038  CPU:   14.766
  Cycle:    147 Energy:      -644.754080  Gnorm:      0.035415  CPU:   14.879
  Cycle:    148 Energy:      -644.755824  Gnorm:      0.041804  CPU:   14.970
  Cycle:    149 Energy:      -644.764749  Gnorm:      0.081050  CPU:   15.083
  Cycle:    150 Energy:      -644.770162  Gnorm:      0.047476  CPU:   15.174
  Cycle:    151 Energy:      -644.772495  Gnorm:      0.029088  CPU:   15.265
  Cycle:    152 Energy:      -644.774309  Gnorm:      0.034186  CPU:   15.377
  Cycle:    153 Energy:      -644.776718  Gnorm:      0.026840  CPU:   15.490
  Cycle:    154 Energy:      -644.778419  Gnorm:      0.028119  CPU:   15.602
  Cycle:    155 Energy:      -644.779862  Gnorm:      0.032138  CPU:   15.693
  Cycle:    156 Energy:      -644.781950  Gnorm:      0.028213  CPU:   15.784
  Cycle:    157 Energy:      -644.783402  Gnorm:      0.026243  CPU:   15.875
  Cycle:    158 Energy:      -644.784430  Gnorm:      0.023785  CPU:   15.966
  Cycle:    159 Energy:      -644.785198  Gnorm:      0.021884  CPU:   16.057
  Cycle:    160 Energy:      -644.785654  Gnorm:      0.018110  CPU:   16.148
  Cycle:    161 Energy:      -644.786508  Gnorm:      0.025896  CPU:   16.239
  Cycle:    162 Energy:      -644.787773  Gnorm:      0.025783  CPU:   16.330
  Cycle:    163 Energy:      -644.789089  Gnorm:      0.025637  CPU:   16.421
  Cycle:    164 Energy:      -644.790222  Gnorm:      0.026288  CPU:   16.512
  Cycle:    165 Energy:      -644.791397  Gnorm:      0.023937  CPU:   16.604
  Cycle:    166 Energy:      -644.792573  Gnorm:      0.028087  CPU:   16.695
  Cycle:    167 Energy:      -644.794037  Gnorm:      0.028682  CPU:   16.786
  Cycle:    168 Energy:      -644.795308  Gnorm:      0.026849  CPU:   16.877
  Cycle:    169 Energy:      -644.797379  Gnorm:      0.037171  CPU:   16.968
  Cycle:    170 Energy:      -644.798841  Gnorm:      0.023556  CPU:   17.060
  Cycle:    171 Energy:      -644.799779  Gnorm:      0.019581  CPU:   17.151
  Cycle:    172 Energy:      -644.800722  Gnorm:      0.027257  CPU:   17.242
  Cycle:    173 Energy:      -644.801685  Gnorm:      0.021056  CPU:   17.333
  Cycle:    174 Energy:      -644.802588  Gnorm:      0.024455  CPU:   17.424
  Cycle:    175 Energy:      -644.803461  Gnorm:      0.018193  CPU:   17.515
  Cycle:    176 Energy:      -644.804136  Gnorm:      0.020146  CPU:   17.607
  Cycle:    177 Energy:      -644.804833  Gnorm:      0.019735  CPU:   17.698
  Cycle:    178 Energy:      -644.805567  Gnorm:      0.017583  CPU:   17.789
  Cycle:    179 Energy:      -644.806083  Gnorm:      0.019779  CPU:   17.880
  Cycle:    180 Energy:      -644.806448  Gnorm:      0.014736  CPU:   17.972
  Cycle:    181 Energy:      -644.806845  Gnorm:      0.016455  CPU:   18.063
  Cycle:    182 Energy:      -644.807371  Gnorm:      0.016522  CPU:   18.154
  Cycle:    183 Energy:      -644.807865  Gnorm:      0.016448  CPU:   18.246
  Cycle:    184 Energy:      -644.808647  Gnorm:      0.022198  CPU:   18.338
  Cycle:    185 Energy:      -644.809426  Gnorm:      0.018407  CPU:   18.429
  Cycle:    186 Energy:      -644.810482  Gnorm:      0.026794  CPU:   18.520
  Cycle:    187 Energy:      -644.811607  Gnorm:      0.020295  CPU:   18.611
  Cycle:    188 Energy:      -644.812297  Gnorm:      0.017900  CPU:   18.703
  Cycle:    189 Energy:      -644.812975  Gnorm:      0.027416  CPU:   18.794
  Cycle:    190 Energy:      -644.813512  Gnorm:      0.015992  CPU:   18.885
  Cycle:    191 Energy:      -644.813869  Gnorm:      0.012659  CPU:   18.976
  Cycle:    192 Energy:      -644.814690  Gnorm:      0.020803  CPU:   19.087
  Cycle:    193 Energy:      -644.815369  Gnorm:      0.015434  CPU:   19.178
  Cycle:    194 Energy:      -644.815723  Gnorm:      0.013327  CPU:   19.269
  Cycle:    195 Energy:      -644.816155  Gnorm:      0.015391  CPU:   19.360
  Cycle:    196 Energy:      -644.816526  Gnorm:      0.012600  CPU:   19.451
  Cycle:    197 Energy:      -644.816848  Gnorm:      0.013879  CPU:   19.542
  Cycle:    198 Energy:      -644.817281  Gnorm:      0.016380  CPU:   19.633
  Cycle:    199 Energy:      -644.817872  Gnorm:      0.024388  CPU:   19.724
  Cycle:    200 Energy:      -644.818317  Gnorm:      0.014945  CPU:   19.815
  Cycle:    201 Energy:      -644.818670  Gnorm:      0.011554  CPU:   19.906
  Cycle:    202 Energy:      -644.818863  Gnorm:      0.009931  CPU:   19.997
  ** Hessian has required structure
  Cycle:    203 Energy:      -644.822871  Gnorm:      0.008346  CPU:   20.295
  ** Hessian has required structure
  Cycle:    204 Energy:      -644.827109  Gnorm:      0.006309  CPU:   20.446
  ** Hessian has required structure
  Cycle:    205 Energy:      -644.831102  Gnorm:      0.003511  CPU:   20.597
  ** Hessian has required structure
  Cycle:    206 Energy:      -644.832710  Gnorm:      0.001258  CPU:   20.728
  ** Hessian has required structure
  Cycle:    207 Energy:      -644.832728  Gnorm:      0.000260  CPU:   20.837
  ** Hessian has required structure


  **** Optimisation achieved ****


  Final enthalpy =    -644.83273043 eV      
  Final Gnorm    =       0.00008086

  Components of enthalpy : 

--------------------------------------------------------------------------------
  Interatomic potentials     =         218.75604772 eV    
  Monopole - monopole (real) =        -499.16483508 eV    
  Monopole - monopole (recip)=        -491.28988757 eV    
  Monopole - monopole (total)=        -990.45472265 eV    
  Pressure*volume            =         126.86594450 eV    
--------------------------------------------------------------------------------
  Total lattice enthalpy     =        -644.83273043 eV    
--------------------------------------------------------------------------------
  Total lattice enthalpy     =          -62216.5013 kJ/(mole unit cells)
--------------------------------------------------------------------------------

  Final fractional coordinates of atoms :

--------------------------------------------------------------------------------
   No.  Atomic        x           y          z          Radius
        Label       (Frac)      (Frac)     (Frac)       (Angs) 
--------------------------------------------------------------------------------
     1  Al    c     0.169175    0.080543    0.207203    0.000000
     2  Al    c     0.005587    0.000755    0.577931    0.000000
     3  Al    c     0.697863    0.562609    0.263037    0.000000
     4  Al    c     0.570614    0.496165    0.671143    0.000000
     5  Al    c     0.648327    0.917824    0.910194    0.000000
     6  Al    c     0.699833    0.208369    0.585773    0.000000
     7  Al    c     0.159180    0.453789    0.954610    0.000000
     8  Al    c     0.221786    0.706872    0.611112    0.000000
     9  Mg    c     0.036313    0.334672    0.346452    0.000000
    10  Mg    c     0.026868    0.733625    0.993994    0.000000
    11  Mg    c     0.533427    0.833140    0.329618    0.000000
    12  Mg    c     0.475355    0.201599    0.960119    0.000000
    13  O     c     0.958701    0.300024    0.954568    0.000000
    14  O     c     0.877553    0.964833    0.806838    0.000000
    15  O     c     0.512551    0.381479    0.312677    0.000000
    16  O     c     0.348150    0.659994    0.025133    0.000000
    17  O     c     0.407241    0.182481    0.574984    0.000000
    18  O     c     0.477431    0.079366    0.265361    0.000000
    19  O     c     0.069465    0.505407    0.582787    0.000000
    20  O     c     0.878119    0.808287    0.400752    0.000000
    21  O     c     0.269383    0.862809    0.386201    0.000000
    22  O     c     0.349769    0.934458    0.837589    0.000000
    23  O     c     0.621013    0.416329    0.989993    0.000000
    24  O     c     0.793724    0.594180    0.656373    0.000000
    25  O     c     0.016950    0.199748    0.644758    0.000000
    26  O     c     0.868211    0.071822    0.180048    0.000000
    27  O     c     0.220146    0.549473    0.325251    0.000000
    28  O     c     0.639507    0.701075    0.890197    0.000000
--------------------------------------------------------------------------------

  Final Cartesian lattice vectors (Angstroms) :

        4.680127   -0.209400   -4.380933
        0.068363    7.954867    0.395203
       -0.181553    0.372037    5.648540


  Final cell parameters and derivatives :

--------------------------------------------------------------------------------
       a            6.414048 Angstrom     dE/de1(xx)     0.000312 eV/strain
       b            7.964971 Angstrom     dE/de2(yy)     0.000982 eV/strain
       c            5.663690 Angstrom     dE/de3(zz)    -0.000141 eV/strain
       alpha       83.407068 Degrees      dE/de4(yz)    -0.001412 eV/strain
       beta       134.969401 Degrees      dE/de5(xz)    -0.000310 eV/strain
       gamma       93.453173 Degrees      dE/de6(xy)     0.000267 eV/strain
--------------------------------------------------------------------------------

  Primitive cell volume =           203.263221 Angs**3

  Density of cell =      4.649118 g/cm**3

  Non-primitive cell volume =           203.263221 Angs**3


  Final internal derivatives :

--------------------------------------------------------------------------------
   No.  Atomic          a             b             c           Radius
        Label          (eV)          (eV)          (eV)        (eV/Angs)
--------------------------------------------------------------------------------
      1 Al    c       0.000000      0.000000      0.000000      0.000000
      2 Al    c       0.002394     -0.000826     -0.002237      0.000000
      3 Al    c      -0.000154      0.000265     -0.000246      0.000000
      4 Al    c      -0.000163     -0.000012      0.000055      0.000000
      5 Al    c      -0.001015      0.000329     -0.001173      0.000000
      6 Al    c      -0.001147      0.000663     -0.000249      0.000000
      7 Al    c       0.000548     -0.000029     -0.000319      0.000000
      8 Al    c      -0.001160     -0.000850      0.001259      0.000000
      9 Mg    c       0.000184     -0.000954     -0.000313      0.000000
     10 Mg    c      -0.000117      0.000692     -0.000113      0.000000
     11 Mg    c       0.000798      0.000068     -0.001987      0.000000
     12 Mg    c       0.000219     -0.000360      0.000168      0.000000
     13 O     c      -0.000703      0.002226     -0.000555      0.000000
     14 O     c      -0.000794     -0.000772     -0.000017      0.000000
     15 O     c      -0.000065      0.000306      0.000423      0.000000
     16 O     c      -0.000489      0.000097      0.000259      0.000000
     17 O     c       0.000157      0.001701      0.001172      0.000000
     18 O     c       0.000196      0.000628      0.000125      0.000000
     19 O     c       0.000184     -0.000089     -0.000273      0.000000
     20 O     c       0.000420     -0.000723      0.000128      0.000000
     21 O     c       0.000071     -0.000936      0.000947      0.000000
     22 O     c      -0.000428     -0.000470      0.000461      0.000000
     23 O     c      -0.000235      0.000464      0.000004      0.000000
     24 O     c      -0.000215      0.000318      0.000069      0.000000
     25 O     c      -0.001238     -0.000206      0.000402      0.000000
     26 O     c      -0.000100      0.000210     -0.000190      0.000000
     27 O     c      -0.000044     -0.000503     -0.000182      0.000000
     28 O     c       0.000267      0.001322     -0.000062      0.000000
--------------------------------------------------------------------------------
  Maximum abs         0.002394      0.002226      0.002237      0.000000
--------------------------------------------------------------------------------


  Time to end of optimisation =      20.9468 seconds


  Peak dynamic memory used =       2.03 MB 


  Timing analysis for GULP :

--------------------------------------------------------------------------------
  Task / Subroutine                                          Time (Seconds)
--------------------------------------------------------------------------------
  Calculation of reciprocal space energy and derivatives          0.5873
  Calculation of real space energy and derivatives               20.1885
  Calculation and manipulation of Hessian matrix                  0.1101
  Global summation overhead                                       0.0013
--------------------------------------------------------------------------------
  Total CPU time                                                 20.9469
--------------------------------------------------------------------------------


  Job Finished at 15:55.13 11th June       2024                               

