********************************************************************************
*                       GENERAL UTILITY LATTICE PROGRAM                        *
*                                 Julian Gale                                  *
*                       Curtin Institute for Computation                       *
*                    School of Molecular and Life Sciences                     *
*                    Curtin University, Western Australia                      *
********************************************************************************
* Version = 6.0.0 * Last modified =  12th July 2021                            *
********************************************************************************
*  optimise     - perform optimisation run                                     *
*  conp         - constant pressure calculation                                *
*  nosymmetry   - turn off symmetry after initial structure generation         *
*  conjugate    - use conjugate gradients minimiser                            *
********************************************************************************

  Job Started  at 15:53.32 11th June       2024                               

  Number of CPUs =     1


  Total number of configurations input =      1

********************************************************************************
*  Input for Configuration =   1                                               *
********************************************************************************

  Formula = Al8Mg4O16                                                   

  Number of irreducible atoms/shells =      28


  Total number atoms/shells =      28

  Dimensionality = 3               :  Bulk   



  Cartesian lattice vectors (Angstroms) :

        5.926667    0.000000    0.000000
        0.000000    5.926667    0.000000
        0.000000    0.000000    5.926667

  Cell parameters (Angstroms/Degrees):

  a =       5.9267    alpha =  90.0000
  b =       5.9267    beta  =  90.0000
  c =       5.9267    gamma =  90.0000

  Initial cell volume =         208.176407 Angs**3

  Temperature of configuration =   0.00     K 

  Pressure of configuration =       100.000 GPa 

  Fractional coordinates of asymmetric unit :

--------------------------------------------------------------------------------
   No.  Atomic       x           y          z         Charge      Occupancy
        Label      (Frac)      (Frac)     (Frac)        (e)         (Frac)  
--------------------------------------------------------------------------------
      1 Al    c    0.033992    0.033992    0.033992     3.00000    1.000000    
      2 Al    c    0.766884 *  0.766884 *  0.033992 *   3.00000    1.000000    
      3 Al    c    0.766884 *  0.033992 *  0.766884 *   3.00000    1.000000    
      4 Al    c    0.033992 *  0.766884 *  0.766884 *   3.00000    1.000000    
      5 Al    c    0.166592 *  0.166592 *  0.166592 *   3.00000    1.000000    
      6 Al    c    0.433700 *  0.433700 *  0.166592 *   3.00000    1.000000    
      7 Al    c    0.433700 *  0.166592 *  0.433700 *   3.00000    1.000000    
      8 Al    c    0.166592 *  0.433700 *  0.433700 *   3.00000    1.000000    
      9 Mg    c    0.600292 *  0.600292 *  0.600292 *   2.00000    1.000000    
     10 Mg    c    0.000000 *  0.000000 *  0.600292 *   2.00000    1.000000    
     11 Mg    c    0.000000 *  0.600292 *  0.000000 *   2.00000    1.000000    
     12 Mg    c    0.600292 *  0.000000 *  0.000000 *   2.00000    1.000000    
     13 O     c    0.122535 *  0.900438 *  0.300146 *  -2.00000    1.000000    
     14 O     c    0.678340 *  0.900438 *  0.300146 *  -2.00000    1.000000    
     15 O     c    0.300146 *  0.122535 *  0.900438 *  -2.00000    1.000000    
     16 O     c    0.300146 *  0.678340 *  0.900438 *  -2.00000    1.000000    
     17 O     c    0.900438 *  0.300146 *  0.122535 *  -2.00000    1.000000    
     18 O     c    0.900438 *  0.300146 *  0.678340 *  -2.00000    1.000000    
     19 O     c    0.078048 *  0.300146 *  0.900438 *  -2.00000    1.000000    
     20 O     c    0.522244 *  0.300146 *  0.900438 *  -2.00000    1.000000    
     21 O     c    0.900438 *  0.078048 *  0.300146 *  -2.00000    1.000000    
     22 O     c    0.900438 *  0.522244 *  0.300146 *  -2.00000    1.000000    
     23 O     c    0.300146 *  0.900438 *  0.078048 *  -2.00000    1.000000    
     24 O     c    0.300146 *  0.900438 *  0.522244 *  -2.00000    1.000000    
     25 O     c    0.000000 *  0.000000 *  0.000000 *  -2.00000    1.000000    
     26 O     c    0.600292 *  0.600292 *  0.000000 *  -2.00000    1.000000    
     27 O     c    0.600292 *  0.000000 *  0.600292 *  -2.00000    1.000000    
     28 O     c    0.000000 *  0.600292 *  0.600292 *  -2.00000    1.000000    
--------------------------------------------------------------------------------



********************************************************************************
*  General input information                                                   *
********************************************************************************

  Species output for all configurations : 

--------------------------------------------------------------------------------
  Species    Type    Atomic    Atomic    Charge       Radii (Angs)     Library
                     Number     Mass       (e)     Cova   Ionic  VDW   Symbol
--------------------------------------------------------------------------------
    Mg       Core       12      24.31   2.000000   1.100  0.000  1.640          
    Al       Core       13      26.98   3.000000   1.350  0.000  2.050          
    O        Core        8      16.00  -2.000000   0.730  0.000  1.360          
--------------------------------------------------------------------------------


  Lattice summation method               =    Ewald          (3-D)
                                         =    Parry          (2-D)
                                         =    Saunders et al (1-D)
  Accuracy factor for lattice sums       =   12.000


  Analytic derivatives to be used

  Time limit = Infinity

  Maximum range for interatomic potentials =    100000.000000 Angstroms

  General interatomic potentials :

--------------------------------------------------------------------------------
Atom  Types   Potential      Parameter       Value         Units   Cutoffs(Ang)
  1     2                                                            Min /  Max 
--------------------------------------------------------------------------------
O    c Mg   c Lennard       Lennard-Jones A  1.5000000    eV*Ang^m  0.000  6.000
                            Lennard-Jones B  0.0000000    eV*Ang^n  
                            Exponent m        12          None
                            Exponent n         6          None
--------------------------------------------------------------------------------
O    c Al   c Lennard       Lennard-Jones A  1.5000000    eV*Ang^m  0.000  6.000
                            Lennard-Jones B  0.0000000    eV*Ang^n  
                            Exponent m        12          None
                            Exponent n         6          None
--------------------------------------------------------------------------------
O    c O    c Lennard       Lennard-Jones A  1.5000000    eV*Ang^m  0.000  6.000
                            Lennard-Jones B  0.0000000    eV*Ang^n  
                            Exponent m        12          None
                            Exponent n         6          None
--------------------------------------------------------------------------------
Mg   c Mg   c Lennard       Lennard-Jones A  1.5000000    eV*Ang^m  0.000  6.000
                            Lennard-Jones B  0.0000000    eV*Ang^n  
                            Exponent m        12          None
                            Exponent n         6          None
--------------------------------------------------------------------------------
Mg   c Al   c Lennard       Lennard-Jones A  1.5000000    eV*Ang^m  0.000  6.000
                            Lennard-Jones B  0.0000000    eV*Ang^n  
                            Exponent m        12          None
                            Exponent n         6          None
--------------------------------------------------------------------------------
Al   c Al   c Lennard       Lennard-Jones A  1.5000000    eV*Ang^m  0.000  6.000
                            Lennard-Jones B  0.0000000    eV*Ang^n  
                            Exponent m        12          None
                            Exponent n         6          None
--------------------------------------------------------------------------------
O    c Mg   c Buckingham    Buckingham A     1428.5000    eV        0.000  7.000
                            Buckingham rho  0.29450000    Ang       
                            Buckingham C     0.0000000    eV*Ang^6  
--------------------------------------------------------------------------------
O    c Al   c Buckingham    Buckingham A     1114.9000    eV        0.000  7.000
                            Buckingham rho  0.31180000    Ang       
                            Buckingham C     0.0000000    eV*Ang^6  
--------------------------------------------------------------------------------
O    c O    c Buckingham    Buckingham A     2023.8000    eV        0.000  7.000
                            Buckingham rho  0.26740000    Ang       
                            Buckingham C     0.0000000    eV*Ang^6  
--------------------------------------------------------------------------------

********************************************************************************
*  Output for configuration   1                                                *
********************************************************************************


  Components of enthalpy : 

--------------------------------------------------------------------------------
  Interatomic potentials     =      461026.17310510 eV    
  Monopole - monopole (real) =        -351.58242476 eV    
  Monopole - monopole (recip)=        -469.04224273 eV    
  Monopole - monopole (total)=        -820.62466749 eV    
  Pressure*volume            =         129.93249047 eV    
--------------------------------------------------------------------------------
  Total lattice enthalpy     =      460335.48092808 eV    
--------------------------------------------------------------------------------
  Total lattice enthalpy     =        44415337.0373 kJ/(mole unit cells)
--------------------------------------------------------------------------------


  Number of variables =       87

  Maximum number of calculations  =           850
  Maximum Hessian update interval =            10
  Maximum step size               =   1.000000000
  Maximum parameter tolerance     =   0.000010000
  Maximum function  tolerance     =   0.000010000
  Maximum gradient  tolerance     =   0.001000000
  Maximum gradient  component     =   0.010000000

  Cell parameters to be optimised using strains

  Conjugate gradient optimiser to be used

  Lower half triangular hessian to be used

  Minimiser to switch to RFO
  When gradient norm is less than     0.010000

  Start of bulk optimisation :

  Cycle:      0 Energy:    460335.480928  Gnorm:1079966.557609  CPU:    0.035
  Cycle:      1 Energy:      -307.053347  Gnorm:     11.967975  CPU:    0.112
  Cycle:      2 Energy:      -448.039834  Gnorm:      8.135853  CPU:    0.178
  Cycle:      3 Energy:      -486.856453  Gnorm:      4.469232  CPU:    0.215
  Cycle:      4 Energy:      -516.157190  Gnorm:      3.846088  CPU:    0.258
  Cycle:      5 Energy:      -538.151173  Gnorm:      4.058074  CPU:    0.313
  Cycle:      6 Energy:      -553.330396  Gnorm:      2.682782  CPU:    0.357
  Cycle:      7 Energy:      -566.482105  Gnorm:      2.660734  CPU:    0.405
  Cycle:      8 Energy:      -577.337688  Gnorm:      2.284955  CPU:    0.448
  Cycle:      9 Energy:      -586.891642  Gnorm:      1.595490  CPU:    0.492
  Cycle:     10 Energy:      -589.712882  Gnorm:      0.904236  CPU:    0.532
  Cycle:     11 Energy:      -592.292751  Gnorm:      1.064781  CPU:    0.576
  Cycle:     12 Energy:      -595.035685  Gnorm:      0.892471  CPU:    0.620
  Cycle:     13 Energy:      -596.777119  Gnorm:      0.663801  CPU:    0.661
  Cycle:     14 Energy:      -598.214737  Gnorm:      0.661843  CPU:    0.705
  Cycle:     15 Energy:      -599.652041  Gnorm:      0.893952  CPU:    0.749
  Cycle:     16 Energy:      -601.168835  Gnorm:      0.796326  CPU:    0.789
  Cycle:     17 Energy:      -603.145154  Gnorm:      1.061228  CPU:    0.833
  Cycle:     18 Energy:      -608.123374  Gnorm:      1.645698  CPU:    0.885
  Cycle:     19 Energy:      -611.945517  Gnorm:      1.639867  CPU:    0.926
  Cycle:     20 Energy:      -617.838592  Gnorm:      1.041168  CPU:    0.970
  Cycle:     21 Energy:      -620.975753  Gnorm:      0.742483  CPU:    1.014
  Cycle:     22 Energy:      -622.409124  Gnorm:      0.484161  CPU:    1.063
  Cycle:     23 Energy:      -623.230546  Gnorm:      0.452782  CPU:    1.107
  Cycle:     24 Energy:      -623.687249  Gnorm:      0.323042  CPU:    1.144
  Cycle:     25 Energy:      -624.006507  Gnorm:      0.314080  CPU:    1.192
  Cycle:     26 Energy:      -624.565319  Gnorm:      0.406186  CPU:    1.236
  Cycle:     27 Energy:      -625.167933  Gnorm:      0.500225  CPU:    1.327
  Cycle:     28 Energy:      -626.493901  Gnorm:      0.698064  CPU:    1.454
  Cycle:     29 Energy:      -628.095746  Gnorm:      0.753104  CPU:    1.563
  Cycle:     30 Energy:      -629.991706  Gnorm:      0.578866  CPU:    1.696
  Cycle:     31 Energy:      -631.099123  Gnorm:      0.563308  CPU:    1.829
  Cycle:     32 Energy:      -632.363644  Gnorm:      0.641440  CPU:    1.964
  Cycle:     33 Energy:      -633.313480  Gnorm:      0.519643  CPU:    2.075
  Cycle:     34 Energy:      -634.104854  Gnorm:      0.402503  CPU:    2.212
  Cycle:     35 Energy:      -634.427456  Gnorm:      0.272625  CPU:    2.325
  Cycle:     36 Energy:      -634.649639  Gnorm:      0.262692  CPU:    2.465
  Cycle:     37 Energy:      -634.837975  Gnorm:      0.164607  CPU:    2.579
  Cycle:     38 Energy:      -634.995781  Gnorm:      0.240298  CPU:    2.720
  Cycle:     39 Energy:      -635.134401  Gnorm:      0.204705  CPU:    2.834
  Cycle:     40 Energy:      -635.209641  Gnorm:      0.164814  CPU:    2.948
  Cycle:     41 Energy:      -635.287390  Gnorm:      0.140083  CPU:    3.089
  Cycle:     42 Energy:      -635.372528  Gnorm:      0.143237  CPU:    3.229
  Cycle:     43 Energy:      -635.437187  Gnorm:      0.150960  CPU:    3.342
  Cycle:     44 Energy:      -635.510265  Gnorm:      0.159873  CPU:    3.482
  Cycle:     45 Energy:      -635.598347  Gnorm:      0.139765  CPU:    3.622
  Cycle:     46 Energy:      -635.676499  Gnorm:      0.140823  CPU:    3.762
  Cycle:     47 Energy:      -635.747283  Gnorm:      0.116599  CPU:    3.876
  Cycle:     48 Energy:      -635.801653  Gnorm:      0.113724  CPU:    4.016
  Cycle:     49 Energy:      -635.838962  Gnorm:      0.065449  CPU:    4.130
  Cycle:     50 Energy:      -635.849621  Gnorm:      0.057200  CPU:    4.245
  Cycle:     51 Energy:      -635.856814  Gnorm:      0.041673  CPU:    4.360
  Cycle:     52 Energy:      -635.861758  Gnorm:      0.028007  CPU:    4.474
  Cycle:     53 Energy:      -635.864582  Gnorm:      0.025270  CPU:    4.589
  Cycle:     54 Energy:      -635.866431  Gnorm:      0.020107  CPU:    4.703
  Cycle:     55 Energy:      -635.867460  Gnorm:      0.014009  CPU:    4.818
  Cycle:     56 Energy:      -635.867984  Gnorm:      0.015073  CPU:    4.932
  Cycle:     57 Energy:      -635.868787  Gnorm:      0.015448  CPU:    5.047
  Cycle:     58 Energy:      -635.870383  Gnorm:      0.015656  CPU:    5.187
  Cycle:     59 Energy:      -635.871705  Gnorm:      0.021570  CPU:    5.302
  Cycle:     60 Energy:      -635.872519  Gnorm:      0.013482  CPU:    5.416
  Cycle:     61 Energy:      -635.873013  Gnorm:      0.012458  CPU:    5.531
  Cycle:     62 Energy:      -635.873407  Gnorm:      0.008522  CPU:    5.646
  ** Hessian has wrong structure
  ** Imaginary eigenvectors =   2
  ** Hessian has wrong structure
  ** Imaginary eigenvectors =   2
  Cycle:     63 Energy:      -635.875176  Gnorm:      0.009294  CPU:    6.222
  ** Hessian has wrong structure
  ** Imaginary eigenvectors =   2
  Cycle:     64 Energy:      -635.892997  Gnorm:      0.017458  CPU:    6.801
  ** Hessian has wrong structure
  ** Imaginary eigenvectors =   2
  Cycle:     65 Energy:      -635.960281  Gnorm:      0.037546  CPU:    7.223
  ** Hessian has wrong structure
  ** Imaginary eigenvectors =   2
  Cycle:     66 Energy:      -636.201607  Gnorm:      0.084214  CPU:    7.774
  ** Hessian has wrong structure
  ** Imaginary eigenvectors =   2
  Cycle:     67 Energy:      -636.807531  Gnorm:      0.145228  CPU:    8.298
  ** Hessian has wrong structure
  ** Imaginary eigenvectors =   2
  Cycle:     68 Energy:      -638.179925  Gnorm:      0.220772  CPU:    8.821
  ** Hessian has wrong structure
  ** Imaginary eigenvectors =   1
  Cycle:     69 Energy:      -639.444813  Gnorm:      0.365488  CPU:    9.271
  ** Hessian has required structure
  Cycle:     70 Energy:      -641.450269  Gnorm:      0.305507  CPU:    9.589
  ** Hessian has required structure
  Cycle:     71 Energy:      -642.002139  Gnorm:      0.404810  CPU:    9.718
  ** Hessian has required structure
  Cycle:     72 Energy:      -642.200301  Gnorm:      0.292775  CPU:    9.850
  ** Hessian has required structure
  Cycle:     73 Energy:      -642.530797  Gnorm:      0.229411  CPU:   10.013
  ** Hessian has required structure
  Cycle:     74 Energy:      -642.731611  Gnorm:      0.253994  CPU:   10.175
  ** Hessian has required structure
  Cycle:     75 Energy:      -642.941856  Gnorm:      0.276459  CPU:   10.335
  ** Hessian has required structure
  Cycle:     76 Energy:      -643.171400  Gnorm:      0.246002  CPU:   10.497
  ** Hessian has required structure
  Cycle:     77 Energy:      -643.461927  Gnorm:      0.257975  CPU:   10.658
  ** Hessian has required structure
  Cycle:     78 Energy:      -643.634478  Gnorm:      0.247369  CPU:   10.789
  ** Hessian has required structure
  Cycle:     79 Energy:      -643.847794  Gnorm:      0.235663  CPU:   10.957
  ** Hessian has wrong structure
  ** Imaginary eigenvectors =   1
  Cycle:     80 Energy:      -644.335994  Gnorm:      0.280371  CPU:   11.420
  ** Hessian has wrong structure
  ** Imaginary eigenvectors =   1
  Cycle:     81 Energy:      -644.726313  Gnorm:      0.342689  CPU:   11.874
  ** Hessian has wrong structure
  ** Imaginary eigenvectors =   1
  Cycle:     82 Energy:      -645.350222  Gnorm:      0.492076  CPU:   12.309
  ** Hessian has required structure
  Cycle:     83 Energy:      -646.055221  Gnorm:      0.434194  CPU:   12.580
  ** Hessian has required structure
  Cycle:     84 Energy:      -646.561576  Gnorm:      0.170995  CPU:   12.743
  ** Hessian has required structure
  Cycle:     85 Energy:      -646.656619  Gnorm:      0.096503  CPU:   12.874
  ** Hessian has required structure
  Cycle:     86 Energy:      -646.703839  Gnorm:      0.081797  CPU:   13.009
  ** Hessian has required structure
  Cycle:     87 Energy:      -646.718439  Gnorm:      0.056567  CPU:   13.144
  ** Hessian has required structure
  Cycle:     88 Energy:      -646.737218  Gnorm:      0.037666  CPU:   13.280
  ** Hessian has required structure
  Cycle:     89 Energy:      -646.750064  Gnorm:      0.047916  CPU:   13.446
  ** Hessian has required structure
  Cycle:     90 Energy:      -646.760088  Gnorm:      0.075243  CPU:   13.635
  ** Hessian has required structure
  Cycle:     91 Energy:      -646.771557  Gnorm:      0.081560  CPU:   13.766
  ** Hessian has required structure
  Cycle:     92 Energy:      -646.812568  Gnorm:      0.102318  CPU:   13.933
  ** Hessian has required structure
  Cycle:     93 Energy:      -646.951932  Gnorm:      0.079490  CPU:   14.202
  ** Hessian has required structure
  Cycle:     94 Energy:      -647.046008  Gnorm:      0.111906  CPU:   14.332
  ** Hessian has required structure
  Cycle:     95 Energy:      -647.105659  Gnorm:      0.115218  CPU:   14.465
  ** Hessian has required structure
  Cycle:     96 Energy:      -647.162807  Gnorm:      0.098245  CPU:   14.598
  ** Hessian has required structure
  Cycle:     97 Energy:      -647.214722  Gnorm:      0.096165  CPU:   14.763
  ** Hessian has required structure
  Cycle:     98 Energy:      -647.259627  Gnorm:      0.115793  CPU:   14.923
  ** Hessian has required structure
  Cycle:     99 Energy:      -647.282773  Gnorm:      0.116913  CPU:   15.084
  ** Hessian has required structure
  Cycle:    100 Energy:      -647.371103  Gnorm:      0.190778  CPU:   15.245
  ** Hessian has required structure
  Cycle:    101 Energy:      -647.503745  Gnorm:      0.222634  CPU:   15.374
  ** Hessian has required structure
  Cycle:    102 Energy:      -647.657891  Gnorm:      0.275335  CPU:   15.473
  ** Hessian has required structure
  Cycle:    103 Energy:      -648.170279  Gnorm:      0.269047  CPU:   15.672
  ** Hessian has required structure
  Cycle:    104 Energy:      -648.363277  Gnorm:      0.122700  CPU:   15.767
  ** Hessian has required structure
  Cycle:    105 Energy:      -648.460782  Gnorm:      0.064283  CPU:   15.884
  ** Hessian has required structure
  Cycle:    106 Energy:      -648.491165  Gnorm:      0.042709  CPU:   15.996
  ** Hessian has required structure
  Cycle:    107 Energy:      -648.505172  Gnorm:      0.025091  CPU:   16.095
  ** Hessian has required structure
  Cycle:    108 Energy:      -648.509869  Gnorm:      0.018391  CPU:   16.195
  ** Hessian has required structure
  Cycle:    109 Energy:      -648.515559  Gnorm:      0.036803  CPU:   16.308
  ** Hessian has required structure
  Cycle:    110 Energy:      -648.560494  Gnorm:      0.125273  CPU:   16.485
  ** Hessian has required structure
  Cycle:    111 Energy:      -648.563601  Gnorm:      0.143622  CPU:   16.619
  ** Hessian has required structure
  Cycle:    112 Energy:      -648.623714  Gnorm:      0.180042  CPU:   16.739
  ** Hessian has required structure
  Cycle:    113 Energy:      -648.815107  Gnorm:      0.037145  CPU:   16.964
  ** Hessian has required structure
  Cycle:    114 Energy:      -648.823535  Gnorm:      0.014560  CPU:   17.062
  ** Hessian has required structure
  Cycle:    115 Energy:      -648.825790  Gnorm:      0.005776  CPU:   17.164
  ** Hessian has required structure
  Cycle:    116 Energy:      -648.825999  Gnorm:      0.001647  CPU:   17.263
  ** Hessian has required structure
  Cycle:    117 Energy:      -648.826014  Gnorm:      0.000429  CPU:   17.366
  ** Hessian has required structure


  **** Optimisation achieved ****


  Final enthalpy =    -648.82601526 eV      
  Final Gnorm    =       0.00009596

  Components of enthalpy : 

--------------------------------------------------------------------------------
  Interatomic potentials     =         225.13087453 eV    
  Monopole - monopole (real) =        -514.15863497 eV    
  Monopole - monopole (recip)=        -488.71190633 eV    
  Monopole - monopole (total)=       -1002.87054130 eV    
  Pressure*volume            =         128.91365151 eV    
--------------------------------------------------------------------------------
  Total lattice enthalpy     =        -648.82601526 eV    
--------------------------------------------------------------------------------
  Total lattice enthalpy     =          -62601.7923 kJ/(mole unit cells)
--------------------------------------------------------------------------------

  Final fractional coordinates of atoms :

--------------------------------------------------------------------------------
   No.  Atomic        x           y          z          Radius
        Label       (Frac)      (Frac)     (Frac)       (Angs) 
--------------------------------------------------------------------------------
     1  Al    c     0.033992    0.033992    0.033992    0.000000
     2  Al    c     0.759845    0.721390    0.130925    0.000000
     3  Al    c     0.752809    0.374211    0.708390    0.000000
     4  Al    c     0.258357    0.704059    0.375429    0.000000
     5  Al    c     0.252852    0.371991    0.957076    0.000000
     6  Al    c     0.258062    0.369258    0.456923    0.000000
     7  Al    c     0.528741    0.034095    0.290802    0.000000
     8  Al    c     0.755833    0.365967    0.205291    0.000000
     9  Mg    c     0.760423    0.704191    0.629157    0.000000
    10  Mg    c     0.028823    0.038346    0.547050    0.000000
    11  Mg    c     0.258547    0.714350    0.877409    0.000000
    12  Mg    c     0.532633    0.039662    0.786947    0.000000
    13  O     c     0.139248    0.890069    0.209914    0.000000
    14  O     c     0.662713    0.893447    0.000746    0.000000
    15  O     c     0.446377    0.160818    0.571351    0.000000
    16  O     c     0.347687    0.628033    0.572499    0.000000
    17  O     c     0.945894    0.155172    0.872817    0.000000
    18  O     c     0.914780    0.157221    0.331741    0.000000
    19  O     c     0.120714    0.380262    0.711830    0.000000
    20  O     c     0.639391    0.408707    0.470172    0.000000
    21  O     c     0.129226    0.397301    0.221179    0.000000
    22  O     c     0.607982    0.361188    0.958176    0.000000
    23  O     c     0.412450    0.150077    0.127312    0.000000
    24  O     c     0.381195    0.622030    0.095831    0.000000
    25  O     c     0.133559    0.893099    0.734121    0.000000
    26  O     c     0.843305    0.614478    0.859995    0.000000
    27  O     c     0.611802    0.884408    0.436676    0.000000
    28  O     c     0.883405    0.635582    0.313679    0.000000
--------------------------------------------------------------------------------

  Final Cartesian lattice vectors (Angstroms) :

        4.610334   -0.789841   -0.129652
       -0.842172    7.944094   -1.364531
       -0.050894   -1.350156    5.987041


  Final cell parameters and derivatives :

--------------------------------------------------------------------------------
       a            4.679299 Angstrom     dE/de1(xx)    -0.002107 eV/strain
       b            8.104309 Angstrom     dE/de2(yy)     0.001730 eV/strain
       c            6.137603 Angstrom     dE/de3(zz)     0.001189 eV/strain
       alpha      112.272447 Degrees      dE/de4(yz)    -0.001437 eV/strain
       beta        89.889201 Degrees      dE/de5(xz)     0.000633 eV/strain
       gamma      105.258700 Degrees      dE/de6(xy)     0.002078 eV/strain
--------------------------------------------------------------------------------

  Primitive cell volume =           206.544035 Angs**3

  Density of cell =      4.575269 g/cm**3

  Non-primitive cell volume =           206.544035 Angs**3


  Final internal derivatives :

--------------------------------------------------------------------------------
   No.  Atomic          a             b             c           Radius
        Label          (eV)          (eV)          (eV)        (eV/Angs)
--------------------------------------------------------------------------------
      1 Al    c       0.000000      0.000000      0.000000      0.000000
      2 Al    c      -0.001230      0.000142     -0.000364      0.000000
      3 Al    c       0.000766      0.000313     -0.001131      0.000000
      4 Al    c       0.000402     -0.000718      0.001801      0.000000
      5 Al    c       0.000237     -0.000440      0.000756      0.000000
      6 Al    c       0.001153     -0.001054      0.001749      0.000000
      7 Al    c       0.000468     -0.000578     -0.000789      0.000000
      8 Al    c       0.000058     -0.000511     -0.000930      0.000000
      9 Mg    c      -0.000584      0.000310     -0.000139      0.000000
     10 Mg    c       0.000160      0.000389     -0.001831      0.000000
     11 Mg    c      -0.000724     -0.000825      0.000454      0.000000
     12 Mg    c      -0.000569      0.000627     -0.001328      0.000000
     13 O     c      -0.000003      0.000482      0.000610      0.000000
     14 O     c       0.000068      0.000036      0.000978      0.000000
     15 O     c       0.000595     -0.000513      0.000413      0.000000
     16 O     c       0.000067      0.001096     -0.000496      0.000000
     17 O     c      -0.000333      0.000129      0.002302      0.000000
     18 O     c      -0.000054     -0.001344      0.000742      0.000000
     19 O     c       0.000098     -0.000976      0.000777      0.000000
     20 O     c      -0.001162      0.000541     -0.000541      0.000000
     21 O     c      -0.001220     -0.001071     -0.001338      0.000000
     22 O     c       0.000275      0.001725     -0.001123      0.000000
     23 O     c      -0.000870      0.001297      0.000588      0.000000
     24 O     c       0.000720      0.000141     -0.000544      0.000000
     25 O     c       0.000452     -0.000019     -0.000348      0.000000
     26 O     c       0.001057     -0.000515      0.000200      0.000000
     27 O     c       0.000462     -0.000225      0.000170      0.000000
     28 O     c       0.000462      0.000475     -0.000301      0.000000
--------------------------------------------------------------------------------
  Maximum abs         0.001230      0.001725      0.002302      0.000000
--------------------------------------------------------------------------------


  Time to end of optimisation =      17.4650 seconds


  Peak dynamic memory used =       2.03 MB 


  Timing analysis for GULP :

--------------------------------------------------------------------------------
  Task / Subroutine                                          Time (Seconds)
--------------------------------------------------------------------------------
  Calculation of reciprocal space energy and derivatives          0.5785
  Calculation of real space energy and derivatives               15.7495
  Calculation and manipulation of Hessian matrix                  2.8648
  Global summation overhead                                       0.0009
--------------------------------------------------------------------------------
  Total CPU time                                                 17.4650
--------------------------------------------------------------------------------


  Job Finished at 15:53.50 11th June       2024                               

