********************************************************************************
*                       GENERAL UTILITY LATTICE PROGRAM                        *
*                                 Julian Gale                                  *
*                       Curtin Institute for Computation                       *
*                    School of Molecular and Life Sciences                     *
*                    Curtin University, Western Australia                      *
********************************************************************************
* Version = 6.0.0 * Last modified =  12th July 2021                            *
********************************************************************************
*  optimise     - perform optimisation run                                     *
*  conp         - constant pressure calculation                                *
*  nosymmetry   - turn off symmetry after initial structure generation         *
*  conjugate    - use conjugate gradients minimiser                            *
********************************************************************************

  Job Started  at 15:51.11 11th June       2024                               

  Number of CPUs =     1


  Total number of configurations input =      1

********************************************************************************
*  Input for Configuration =   1                                               *
********************************************************************************

  Formula = Al8Mg4O16                                                   

  Number of irreducible atoms/shells =      28


  Total number atoms/shells =      28

  Dimensionality = 3               :  Bulk   



  Cartesian lattice vectors (Angstroms) :

        4.818030    0.000000    0.000000
        0.000000    4.818030    0.000000
        0.000000    0.000000    8.967934

  Cell parameters (Angstroms/Degrees):

  a =       4.8180    alpha =  90.0000
  b =       4.8180    beta  =  90.0000
  c =       8.9679    gamma =  90.0000

  Initial cell volume =         208.176407 Angs**3

  Temperature of configuration =   0.00     K 

  Pressure of configuration =       100.000 GPa 

  Fractional coordinates of asymmetric unit :

--------------------------------------------------------------------------------
   No.  Atomic       x           y          z         Charge      Occupancy
        Label      (Frac)      (Frac)     (Frac)        (e)         (Frac)  
--------------------------------------------------------------------------------
      1 Al    c    0.286820    0.286820    0.286820     3.00000    1.000000    
      2 Al    c    0.860461 *  0.860461 *  0.286820 *   3.00000    1.000000    
      3 Al    c    0.860461 *  0.286820 *  0.286820 *   3.00000    1.000000    
      4 Al    c    0.286820 *  0.860461 *  0.286820 *   3.00000    1.000000    
      5 Al    c    0.860461 *  0.860461 *  0.860461 *   3.00000    1.000000    
      6 Al    c    0.286820 *  0.286820 *  0.860461 *   3.00000    1.000000    
      7 Al    c    0.286820 *  0.860461 *  0.860461 *   3.00000    1.000000    
      8 Al    c    0.860461 *  0.286820 *  0.860461 *   3.00000    1.000000    
      9 Mg    c    0.000000 *  0.573641 *  0.286820 *   2.00000    1.000000    
     10 Mg    c    0.573641 *  0.147281 *  0.286820 *   2.00000    1.000000    
     11 Mg    c    0.573641 *  0.147281 *  0.860461 *   2.00000    1.000000    
     12 Mg    c    0.000000 *  0.573641 *  0.860461 *   2.00000    1.000000    
     13 O     c    0.155178 *  0.140093 *  0.446493 *  -2.00000    1.000000    
     14 O     c    0.992103 *  0.007188 *  0.446493 *  -2.00000    1.000000    
     15 O     c    0.007188 *  0.155178 *  0.446493 *  -2.00000    1.000000    
     16 O     c    0.140093 *  0.992103 *  0.446493 *  -2.00000    1.000000    
     17 O     c    0.992103 *  0.007188 *  0.700788 *  -2.00000    1.000000    
     18 O     c    0.155178 *  0.140093 *  0.700788 *  -2.00000    1.000000    
     19 O     c    0.140093 *  0.992103 *  0.700788 *  -2.00000    1.000000    
     20 O     c    0.007188 *  0.155178 *  0.700788 *  -2.00000    1.000000    
     21 O     c    0.728819 *  0.713733 *  0.020134 *  -2.00000    1.000000    
     22 O     c    0.418463 *  0.433548 *  0.020134 *  -2.00000    1.000000    
     23 O     c    0.433548 *  0.728819 *  0.020134 *  -2.00000    1.000000    
     24 O     c    0.713733 *  0.418463 *  0.020134 *  -2.00000    1.000000    
     25 O     c    0.418463 *  0.433548 *  0.127147 *  -2.00000    1.000000    
     26 O     c    0.728819 *  0.713733 *  0.127147 *  -2.00000    1.000000    
     27 O     c    0.713733 *  0.418463 *  0.127147 *  -2.00000    1.000000    
     28 O     c    0.433548 *  0.728819 *  0.127147 *  -2.00000    1.000000    
--------------------------------------------------------------------------------



********************************************************************************
*  General input information                                                   *
********************************************************************************

  Species output for all configurations : 

--------------------------------------------------------------------------------
  Species    Type    Atomic    Atomic    Charge       Radii (Angs)     Library
                     Number     Mass       (e)     Cova   Ionic  VDW   Symbol
--------------------------------------------------------------------------------
    Mg       Core       12      24.31   2.000000   1.100  0.000  1.640          
    Al       Core       13      26.98   3.000000   1.350  0.000  2.050          
    O        Core        8      16.00  -2.000000   0.730  0.000  1.360          
--------------------------------------------------------------------------------


  Lattice summation method               =    Ewald          (3-D)
                                         =    Parry          (2-D)
                                         =    Saunders et al (1-D)
  Accuracy factor for lattice sums       =   12.000


  Analytic derivatives to be used

  Time limit = Infinity

  Maximum range for interatomic potentials =    100000.000000 Angstroms

  General interatomic potentials :

--------------------------------------------------------------------------------
Atom  Types   Potential      Parameter       Value         Units   Cutoffs(Ang)
  1     2                                                            Min /  Max 
--------------------------------------------------------------------------------
O    c Mg   c Lennard       Lennard-Jones A  1.5000000    eV*Ang^m  0.000  6.000
                            Lennard-Jones B  0.0000000    eV*Ang^n  
                            Exponent m        12          None
                            Exponent n         6          None
--------------------------------------------------------------------------------
O    c Al   c Lennard       Lennard-Jones A  1.5000000    eV*Ang^m  0.000  6.000
                            Lennard-Jones B  0.0000000    eV*Ang^n  
                            Exponent m        12          None
                            Exponent n         6          None
--------------------------------------------------------------------------------
O    c O    c Lennard       Lennard-Jones A  1.5000000    eV*Ang^m  0.000  6.000
                            Lennard-Jones B  0.0000000    eV*Ang^n  
                            Exponent m        12          None
                            Exponent n         6          None
--------------------------------------------------------------------------------
Mg   c Mg   c Lennard       Lennard-Jones A  1.5000000    eV*Ang^m  0.000  6.000
                            Lennard-Jones B  0.0000000    eV*Ang^n  
                            Exponent m        12          None
                            Exponent n         6          None
--------------------------------------------------------------------------------
Mg   c Al   c Lennard       Lennard-Jones A  1.5000000    eV*Ang^m  0.000  6.000
                            Lennard-Jones B  0.0000000    eV*Ang^n  
                            Exponent m        12          None
                            Exponent n         6          None
--------------------------------------------------------------------------------
Al   c Al   c Lennard       Lennard-Jones A  1.5000000    eV*Ang^m  0.000  6.000
                            Lennard-Jones B  0.0000000    eV*Ang^n  
                            Exponent m        12          None
                            Exponent n         6          None
--------------------------------------------------------------------------------
O    c Mg   c Buckingham    Buckingham A     1428.5000    eV        0.000  7.000
                            Buckingham rho  0.29450000    Ang       
                            Buckingham C     0.0000000    eV*Ang^6  
--------------------------------------------------------------------------------
O    c Al   c Buckingham    Buckingham A     1114.9000    eV        0.000  7.000
                            Buckingham rho  0.31180000    Ang       
                            Buckingham C     0.0000000    eV*Ang^6  
--------------------------------------------------------------------------------
O    c O    c Buckingham    Buckingham A     2023.8000    eV        0.000  7.000
                            Buckingham rho  0.26740000    Ang       
                            Buckingham C     0.0000000    eV*Ang^6  
--------------------------------------------------------------------------------

********************************************************************************
*  Output for configuration   1                                                *
********************************************************************************


  Components of enthalpy : 

--------------------------------------------------------------------------------
  Interatomic potentials     =        2423.03286701 eV    
  Monopole - monopole (real) =         689.30602157 eV    
  Monopole - monopole (recip)=        -425.69240593 eV    
  Monopole - monopole (total)=         263.61361564 eV    
  Pressure*volume            =         129.93249047 eV    
--------------------------------------------------------------------------------
  Total lattice enthalpy     =        2816.57897312 eV    
--------------------------------------------------------------------------------
  Total lattice enthalpy     =          271756.8156 kJ/(mole unit cells)
--------------------------------------------------------------------------------


  Number of variables =       87

  Maximum number of calculations  =           850
  Maximum Hessian update interval =            10
  Maximum step size               =   1.000000000
  Maximum parameter tolerance     =   0.000010000
  Maximum function  tolerance     =   0.000010000
  Maximum gradient  tolerance     =   0.001000000
  Maximum gradient  component     =   0.010000000

  Cell parameters to be optimised using strains

  Conjugate gradient optimiser to be used

  Lower half triangular hessian to be used

  Minimiser to switch to RFO
  When gradient norm is less than     0.010000

  Start of bulk optimisation :

  Cycle:      0 Energy:      2816.578973  Gnorm:    503.566756  CPU:    0.035
  Cycle:      1 Energy:      -129.177257  Gnorm:     20.887033  CPU:    0.121
  Cycle:      2 Energy:      -250.016257  Gnorm:      8.053888  CPU:    0.176
  Cycle:      3 Energy:      -294.016175  Gnorm:      8.521717  CPU:    0.226
  Cycle:      4 Energy:      -334.958299  Gnorm:      7.740161  CPU:    0.271
  Cycle:      5 Energy:      -349.557277  Gnorm:      5.276764  CPU:    0.315
  Cycle:      6 Energy:      -367.430237  Gnorm:      6.016645  CPU:    0.363
  Cycle:      7 Energy:      -387.138467  Gnorm:      6.163275  CPU:    0.407
  Cycle:      8 Energy:      -417.313894  Gnorm:      6.274547  CPU:    0.451
  Cycle:      9 Energy:      -451.639302  Gnorm:      5.413367  CPU:    0.506
  Cycle:     10 Energy:      -481.271323  Gnorm:      6.301413  CPU:    0.550
  Cycle:     11 Energy:      -523.115313  Gnorm:      4.787936  CPU:    0.593
  Cycle:     12 Energy:      -546.680790  Gnorm:      3.875072  CPU:    0.642
  Cycle:     13 Energy:      -563.521749  Gnorm:      2.769642  CPU:    0.687
  Cycle:     14 Energy:      -576.715633  Gnorm:      2.139224  CPU:    0.732
  Cycle:     15 Energy:      -586.456526  Gnorm:      2.902856  CPU:    0.793
  Cycle:     16 Energy:      -596.774431  Gnorm:      2.584408  CPU:    0.856
  Cycle:     17 Energy:      -607.135728  Gnorm:      1.822196  CPU:    0.923
  Cycle:     18 Energy:      -612.370051  Gnorm:      1.848955  CPU:    0.989
  Cycle:     19 Energy:      -618.279431  Gnorm:      1.615571  CPU:    1.054
  Cycle:     20 Energy:      -621.443846  Gnorm:      1.088784  CPU:    1.141
  Cycle:     21 Energy:      -623.251509  Gnorm:      0.992457  CPU:    1.210
  Cycle:     22 Energy:      -624.912676  Gnorm:      0.874570  CPU:    1.315
  Cycle:     23 Energy:      -626.542085  Gnorm:      0.838827  CPU:    1.399
  Cycle:     24 Energy:      -628.043053  Gnorm:      0.882278  CPU:    1.489
  Cycle:     25 Energy:      -629.262072  Gnorm:      0.800263  CPU:    1.564
  Cycle:     26 Energy:      -630.415604  Gnorm:      0.642544  CPU:    1.660
  Cycle:     27 Energy:      -631.477545  Gnorm:      0.703942  CPU:    1.753
  Cycle:     28 Energy:      -632.173240  Gnorm:      0.604040  CPU:    1.833
  Cycle:     29 Energy:      -633.076146  Gnorm:      0.528436  CPU:    1.926
  Cycle:     30 Energy:      -633.470690  Gnorm:      0.481437  CPU:    2.007
  Cycle:     31 Energy:      -633.925706  Gnorm:      0.416423  CPU:    2.100
  Cycle:     32 Energy:      -634.311307  Gnorm:      0.435253  CPU:    2.198
  Cycle:     33 Energy:      -634.734108  Gnorm:      0.415955  CPU:    2.291
  Cycle:     34 Energy:      -635.037884  Gnorm:      0.354432  CPU:    2.372
  Cycle:     35 Energy:      -635.274924  Gnorm:      0.292929  CPU:    2.465
  Cycle:     36 Energy:      -635.455771  Gnorm:      0.284520  CPU:    2.541
  Cycle:     37 Energy:      -635.684945  Gnorm:      0.293201  CPU:    2.605
  Cycle:     38 Energy:      -635.890698  Gnorm:      0.281336  CPU:    2.658
  Cycle:     39 Energy:      -636.036263  Gnorm:      0.290309  CPU:    2.716
  Cycle:     40 Energy:      -636.135132  Gnorm:      0.249089  CPU:    2.769
  Cycle:     41 Energy:      -636.303763  Gnorm:      0.250091  CPU:    2.838
  Cycle:     42 Energy:      -636.465706  Gnorm:      0.225006  CPU:    2.903
  Cycle:     43 Energy:      -636.598867  Gnorm:      0.233010  CPU:    2.972
  Cycle:     44 Energy:      -636.721863  Gnorm:      0.234614  CPU:    3.025
  Cycle:     45 Energy:      -636.899132  Gnorm:      0.326691  CPU:    3.094
  Cycle:     46 Energy:      -637.180926  Gnorm:      0.396084  CPU:    3.176
  Cycle:     47 Energy:      -637.567395  Gnorm:      0.463463  CPU:    3.256
  Cycle:     48 Energy:      -637.843861  Gnorm:      0.327484  CPU:    3.336
  Cycle:     49 Energy:      -638.182257  Gnorm:      0.322885  CPU:    3.429
  Cycle:     50 Energy:      -638.286926  Gnorm:      0.191876  CPU:    3.509
  Cycle:     51 Energy:      -638.375187  Gnorm:      0.209178  CPU:    3.585
  Cycle:     52 Energy:      -638.497516  Gnorm:      0.239424  CPU:    3.650
  Cycle:     53 Energy:      -638.585586  Gnorm:      0.175621  CPU:    3.707
  Cycle:     54 Energy:      -638.681894  Gnorm:      0.238562  CPU:    3.772
  Cycle:     55 Energy:      -638.836693  Gnorm:      0.271635  CPU:    3.841
  Cycle:     56 Energy:      -638.945198  Gnorm:      0.188403  CPU:    3.894
  Cycle:     57 Energy:      -639.053848  Gnorm:      0.232004  CPU:    3.963
  Cycle:     58 Energy:      -639.177489  Gnorm:      0.245562  CPU:    4.016
  Cycle:     59 Energy:      -639.342542  Gnorm:      0.252968  CPU:    4.085
  Cycle:     60 Energy:      -639.423784  Gnorm:      0.193236  CPU:    4.138
  Cycle:     61 Energy:      -639.500947  Gnorm:      0.186879  CPU:    4.203
  Cycle:     62 Energy:      -639.583817  Gnorm:      0.213423  CPU:    4.268
  Cycle:     63 Energy:      -639.664568  Gnorm:      0.204410  CPU:    4.321
  Cycle:     64 Energy:      -639.824034  Gnorm:      0.260574  CPU:    4.386
  Cycle:     65 Energy:      -639.957213  Gnorm:      0.287184  CPU:    4.439
  Cycle:     66 Energy:      -640.117806  Gnorm:      0.273743  CPU:    4.504
  Cycle:     67 Energy:      -640.337670  Gnorm:      0.293171  CPU:    4.569
  Cycle:     68 Energy:      -640.502349  Gnorm:      0.325854  CPU:    4.622
  Cycle:     69 Energy:      -640.808040  Gnorm:      0.351587  CPU:    4.688
  Cycle:     70 Energy:      -640.997502  Gnorm:      0.337189  CPU:    4.741
  Cycle:     71 Energy:      -641.218087  Gnorm:      0.306183  CPU:    4.806
  Cycle:     72 Energy:      -641.432170  Gnorm:      0.296577  CPU:    4.871
  Cycle:     73 Energy:      -641.656247  Gnorm:      0.392685  CPU:    4.937
  Cycle:     74 Energy:      -642.003958  Gnorm:      0.439052  CPU:    5.002
  Cycle:     75 Energy:      -642.570301  Gnorm:      0.505931  CPU:    5.097
  Cycle:     76 Energy:      -642.877841  Gnorm:      0.386318  CPU:    5.175
  Cycle:     77 Energy:      -643.264381  Gnorm:      0.324325  CPU:    5.270
  Cycle:     78 Energy:      -643.498792  Gnorm:      0.291326  CPU:    5.348
  Cycle:     79 Energy:      -643.652251  Gnorm:      0.296936  CPU:    5.425
  Cycle:     80 Energy:      -643.731325  Gnorm:      0.199994  CPU:    5.503
  Cycle:     81 Energy:      -643.859952  Gnorm:      0.217761  CPU:    5.599
  Cycle:     82 Energy:      -643.956708  Gnorm:      0.200756  CPU:    5.676
  Cycle:     83 Energy:      -644.026411  Gnorm:      0.194802  CPU:    5.754
  Cycle:     84 Energy:      -644.101828  Gnorm:      0.184189  CPU:    5.831
  Cycle:     85 Energy:      -644.169519  Gnorm:      0.193721  CPU:    5.926
  Cycle:     86 Energy:      -644.250862  Gnorm:      0.207644  CPU:    6.021
  Cycle:     87 Energy:      -644.400696  Gnorm:      0.235623  CPU:    6.116
  Cycle:     88 Energy:      -644.516240  Gnorm:      0.270212  CPU:    6.194
  Cycle:     89 Energy:      -644.622018  Gnorm:      0.236151  CPU:    6.271
  Cycle:     90 Energy:      -644.691798  Gnorm:      0.232217  CPU:    6.349
  Cycle:     91 Energy:      -644.791371  Gnorm:      0.205859  CPU:    6.444
  Cycle:     92 Energy:      -644.883893  Gnorm:      0.162868  CPU:    6.540
  Cycle:     93 Energy:      -644.923876  Gnorm:      0.150817  CPU:    6.617
  Cycle:     94 Energy:      -644.972697  Gnorm:      0.146219  CPU:    6.713
  Cycle:     95 Energy:      -645.037881  Gnorm:      0.197170  CPU:    6.808
  Cycle:     96 Energy:      -645.112385  Gnorm:      0.207309  CPU:    6.886
  Cycle:     97 Energy:      -645.209803  Gnorm:      0.257006  CPU:    6.982
  Cycle:     98 Energy:      -645.329933  Gnorm:      0.266212  CPU:    7.078
  Cycle:     99 Energy:      -645.471517  Gnorm:      0.272932  CPU:    7.173
  Cycle:    100 Energy:      -645.547121  Gnorm:      0.195190  CPU:    7.251
  Cycle:    101 Energy:      -645.628482  Gnorm:      0.219182  CPU:    7.347
  Cycle:    102 Energy:      -645.700795  Gnorm:      0.190719  CPU:    7.424
  Cycle:    103 Energy:      -645.773087  Gnorm:      0.201809  CPU:    7.520
  Cycle:    104 Energy:      -645.871140  Gnorm:      0.166952  CPU:    7.615
  Cycle:    105 Energy:      -645.975678  Gnorm:      0.211323  CPU:    7.710
  Cycle:    106 Energy:      -646.076852  Gnorm:      0.281778  CPU:    7.786
  Cycle:    107 Energy:      -646.241230  Gnorm:      0.305289  CPU:    7.881
  Cycle:    108 Energy:      -646.399015  Gnorm:      0.268200  CPU:    7.957
  Cycle:    109 Energy:      -646.510453  Gnorm:      0.265825  CPU:    8.051
  Cycle:    110 Energy:      -646.586961  Gnorm:      0.220336  CPU:    8.128
  Cycle:    111 Energy:      -646.676065  Gnorm:      0.210361  CPU:    8.221
  Cycle:    112 Energy:      -646.762772  Gnorm:      0.183206  CPU:    8.316
  Cycle:    113 Energy:      -646.810902  Gnorm:      0.156845  CPU:    8.392
  Cycle:    114 Energy:      -646.856837  Gnorm:      0.129081  CPU:    8.490
  Cycle:    115 Energy:      -646.906236  Gnorm:      0.153761  CPU:    8.584
  Cycle:    116 Energy:      -646.946109  Gnorm:      0.138240  CPU:    8.665
  Cycle:    117 Energy:      -646.991155  Gnorm:      0.139472  CPU:    8.759
  Cycle:    118 Energy:      -647.033319  Gnorm:      0.158241  CPU:    8.857
  Cycle:    119 Energy:      -647.065869  Gnorm:      0.140183  CPU:    8.934
  Cycle:    120 Energy:      -647.089413  Gnorm:      0.126218  CPU:    9.013
  Cycle:    121 Energy:      -647.116204  Gnorm:      0.110736  CPU:    9.091
  Cycle:    122 Energy:      -647.140206  Gnorm:      0.102832  CPU:    9.189
  Cycle:    123 Energy:      -647.163631  Gnorm:      0.111666  CPU:    9.283
  Cycle:    124 Energy:      -647.187739  Gnorm:      0.091755  CPU:    9.363
  Cycle:    125 Energy:      -647.210693  Gnorm:      0.097503  CPU:    9.457
  Cycle:    126 Energy:      -647.228995  Gnorm:      0.111044  CPU:    9.537
  Cycle:    127 Energy:      -647.257497  Gnorm:      0.101738  CPU:    9.631
  Cycle:    128 Energy:      -647.281831  Gnorm:      0.093160  CPU:    9.711
  Cycle:    129 Energy:      -647.312327  Gnorm:      0.172236  CPU:    9.805
  Cycle:    130 Energy:      -647.331862  Gnorm:      0.086297  CPU:    9.902
  Cycle:    131 Energy:      -647.347953  Gnorm:      0.081203  CPU:    9.996
  Cycle:    132 Energy:      -647.365358  Gnorm:      0.080307  CPU:   10.094
  Cycle:    133 Energy:      -647.377750  Gnorm:      0.066525  CPU:   10.170
  Cycle:    134 Energy:      -647.388318  Gnorm:      0.073504  CPU:   10.267
  Cycle:    135 Energy:      -647.397289  Gnorm:      0.065104  CPU:   10.343
  Cycle:    136 Energy:      -647.408142  Gnorm:      0.066647  CPU:   10.441
  Cycle:    137 Energy:      -647.416148  Gnorm:      0.070399  CPU:   10.518
  Cycle:    138 Energy:      -647.426637  Gnorm:      0.074844  CPU:   10.596
  Cycle:    139 Energy:      -647.435824  Gnorm:      0.079943  CPU:   10.674
  Cycle:    140 Energy:      -647.442480  Gnorm:      0.068101  CPU:   10.753
  Cycle:    141 Energy:      -647.452747  Gnorm:      0.064254  CPU:   10.830
  Cycle:    142 Energy:      -647.459269  Gnorm:      0.064194  CPU:   10.908
  Cycle:    143 Energy:      -647.468266  Gnorm:      0.058186  CPU:   11.004
  Cycle:    144 Energy:      -647.476436  Gnorm:      0.067309  CPU:   11.085
  Cycle:    145 Energy:      -647.484815  Gnorm:      0.064898  CPU:   11.161
  Cycle:    146 Energy:      -647.496144  Gnorm:      0.074090  CPU:   11.259
  Cycle:    147 Energy:      -647.514073  Gnorm:      0.086051  CPU:   11.353
  Cycle:    148 Energy:      -647.533350  Gnorm:      0.087815  CPU:   11.429
  Cycle:    149 Energy:      -647.588460  Gnorm:      0.203762  CPU:   11.523
  Cycle:    150 Energy:      -647.631001  Gnorm:      0.119854  CPU:   11.599
  Cycle:    151 Energy:      -647.650026  Gnorm:      0.114194  CPU:   11.676
  Cycle:    152 Energy:      -647.677650  Gnorm:      0.101649  CPU:   11.770
  Cycle:    153 Energy:      -647.702871  Gnorm:      0.094471  CPU:   11.863
  Cycle:    154 Energy:      -647.721651  Gnorm:      0.097697  CPU:   11.939
  Cycle:    155 Energy:      -647.736672  Gnorm:      0.076164  CPU:   12.016
  Cycle:    156 Energy:      -647.750551  Gnorm:      0.077046  CPU:   12.110
  Cycle:    157 Energy:      -647.765146  Gnorm:      0.076756  CPU:   12.203
  Cycle:    158 Energy:      -647.776882  Gnorm:      0.075804  CPU:   12.280
  Cycle:    159 Energy:      -647.785781  Gnorm:      0.069739  CPU:   12.356
  Cycle:    160 Energy:      -647.790225  Gnorm:      0.057127  CPU:   12.433
  Cycle:    161 Energy:      -647.797677  Gnorm:      0.056996  CPU:   12.509
  Cycle:    162 Energy:      -647.804539  Gnorm:      0.051047  CPU:   12.586
  Cycle:    163 Energy:      -647.810450  Gnorm:      0.045416  CPU:   12.662
  Cycle:    164 Energy:      -647.814230  Gnorm:      0.047150  CPU:   12.738
  Cycle:    165 Energy:      -647.818370  Gnorm:      0.040443  CPU:   12.832
  Cycle:    166 Energy:      -647.821999  Gnorm:      0.040783  CPU:   12.909
  Cycle:    167 Energy:      -647.824008  Gnorm:      0.035386  CPU:   12.985
  Cycle:    168 Energy:      -647.826276  Gnorm:      0.025371  CPU:   13.079
  Cycle:    169 Energy:      -647.827712  Gnorm:      0.029906  CPU:   13.155
  Cycle:    170 Energy:      -647.828650  Gnorm:      0.020823  CPU:   13.234
  Cycle:    171 Energy:      -647.829698  Gnorm:      0.025115  CPU:   13.312
  Cycle:    172 Energy:      -647.830599  Gnorm:      0.023378  CPU:   13.391
  Cycle:    173 Energy:      -647.831584  Gnorm:      0.020669  CPU:   13.486
  Cycle:    174 Energy:      -647.832415  Gnorm:      0.018175  CPU:   13.567
  Cycle:    175 Energy:      -647.833027  Gnorm:      0.017111  CPU:   13.643
  Cycle:    176 Energy:      -647.833463  Gnorm:      0.016229  CPU:   13.721
  Cycle:    177 Energy:      -647.833989  Gnorm:      0.014114  CPU:   13.800
  Cycle:    178 Energy:      -647.834334  Gnorm:      0.014428  CPU:   13.880
  Cycle:    179 Energy:      -647.834649  Gnorm:      0.010421  CPU:   13.957
  Cycle:    180 Energy:      -647.834834  Gnorm:      0.011951  CPU:   14.035
  Cycle:    181 Energy:      -647.835022  Gnorm:      0.009376  CPU:   14.114
  ** Hessian has required structure
  Cycle:    182 Energy:      -647.836784  Gnorm:      0.003078  CPU:   14.366
  ** Hessian has required structure
  Cycle:    183 Energy:      -647.837003  Gnorm:      0.000214  CPU:   14.461
  ** Hessian has required structure


  **** Optimisation achieved ****


  Final enthalpy =    -647.83700299 eV      
  Final Gnorm    =       0.00003197

  Components of enthalpy : 

--------------------------------------------------------------------------------
  Interatomic potentials     =         224.37006389 eV    
  Monopole - monopole (real) =        -513.63841329 eV    
  Monopole - monopole (recip)=        -487.96425043 eV    
  Monopole - monopole (total)=       -1001.60266372 eV    
  Pressure*volume            =         129.39559684 eV    
--------------------------------------------------------------------------------
  Total lattice enthalpy     =        -647.83700299 eV    
--------------------------------------------------------------------------------
  Total lattice enthalpy     =          -62506.3677 kJ/(mole unit cells)
--------------------------------------------------------------------------------

  Final fractional coordinates of atoms :

--------------------------------------------------------------------------------
   No.  Atomic        x           y          z          Radius
        Label       (Frac)      (Frac)     (Frac)       (Angs) 
--------------------------------------------------------------------------------
     1  Al    c     0.286820    0.286820    0.286820    0.000000
     2  Al    c     0.768890    0.770384    0.284497    0.000000
     3  Al    c     0.168376    0.105175    0.574330    0.000000
     4  Al    c     0.279365    0.777139    0.288242    0.000000
     5  Al    c     0.884078    0.963903    0.006826    0.000000
     6  Al    c     0.570762    0.434628    0.913025    0.000000
     7  Al    c     0.356370    0.949806    0.960813    0.000000
     8  Al    c     0.090031    0.440532    0.900225    0.000000
     9  Mg    c     0.171292    0.611205    0.582559    0.000000
    10  Mg    c     0.691708    0.097838    0.614381    0.000000
    11  Mg    c     0.776070    0.283171    0.293261    0.000000
    12  Mg    c     0.683824    0.610674    0.606389    0.000000
    13  O     c     0.379139    0.326269    0.521697    0.000000
    14  O     c     0.908721    0.854854    0.508747    0.000000
    15  O     c     0.923086    0.334994    0.549373    0.000000
    16  O     c     0.378431    0.855933    0.526767    0.000000
    17  O     c     0.821170    0.889222    0.797614    0.000000
    18  O     c     0.650541    0.188572    0.037682    0.000000
    19  O     c     0.303407    0.630835    0.824472    0.000000
    20  O     c     0.280529    0.171831    0.799597    0.000000
    21  O     c     0.157492    0.738585    0.054088    0.000000
    22  O     c     0.160633    0.213035    0.051859    0.000000
    23  O     c     0.672986    0.734159    0.058548    0.000000
    24  O     c     0.776704    0.400630    0.809375    0.000000
    25  O     c     0.521814    0.542512    0.297658    0.000000
    26  O     c     0.042297    0.538181    0.291738    0.000000
    27  O     c     0.037825    0.025977    0.282232    0.000000
    28  O     c     0.511897    0.019248    0.281857    0.000000
--------------------------------------------------------------------------------

  Final Cartesian lattice vectors (Angstroms) :

        5.343827   -0.023905   -0.817903
       -0.024164    5.133045   -0.388390
       -1.522420   -0.722779    7.846886


  Final cell parameters and derivatives :

--------------------------------------------------------------------------------
       a            5.406110 Angstrom     dE/de1(xx)     0.000128 eV/strain
       b            5.147774 Angstrom     dE/de2(yy)     0.000117 eV/strain
       c            8.025821 Angstrom     dE/de3(zz)    -0.000197 eV/strain
       alpha       99.362175 Degrees      dE/de4(yz)     0.000581 eV/strain
       beta       109.574119 Degrees      dE/de5(xz)     0.000224 eV/strain
       gamma       89.864465 Degrees      dE/de6(xy)    -0.000533 eV/strain
--------------------------------------------------------------------------------

  Primitive cell volume =           207.316202 Angs**3

  Density of cell =      4.558228 g/cm**3

  Non-primitive cell volume =           207.316202 Angs**3


  Final internal derivatives :

--------------------------------------------------------------------------------
   No.  Atomic          a             b             c           Radius
        Label          (eV)          (eV)          (eV)        (eV/Angs)
--------------------------------------------------------------------------------
      1 Al    c       0.000000      0.000000      0.000000      0.000000
      2 Al    c      -0.000024      0.000065     -0.000102      0.000000
      3 Al    c       0.000113     -0.000091      0.000167      0.000000
      4 Al    c       0.000154     -0.000034     -0.000230      0.000000
      5 Al    c       0.000282     -0.000075     -0.001614      0.000000
      6 Al    c       0.000216      0.000350     -0.000398      0.000000
      7 Al    c      -0.000041      0.000090     -0.000335      0.000000
      8 Al    c       0.000118     -0.000182      0.000054      0.000000
      9 Mg    c       0.000193      0.000117     -0.000107      0.000000
     10 Mg    c      -0.000115     -0.000105      0.000205      0.000000
     11 Mg    c       0.000071     -0.000006      0.000034      0.000000
     12 Mg    c       0.000152      0.000144      0.000135      0.000000
     13 O     c       0.000018     -0.000094      0.000111      0.000000
     14 O     c      -0.000112     -0.000008      0.000059      0.000000
     15 O     c      -0.000106      0.000111      0.000074      0.000000
     16 O     c       0.000141      0.000154      0.000076      0.000000
     17 O     c      -0.000389     -0.000182      0.001360      0.000000
     18 O     c       0.000140      0.000014     -0.000153      0.000000
     19 O     c      -0.000074     -0.000103      0.000192      0.000000
     20 O     c       0.000118      0.000090     -0.000163      0.000000
     21 O     c      -0.000213      0.000032     -0.000286      0.000000
     22 O     c      -0.000118      0.000192      0.000286      0.000000
     23 O     c       0.000104     -0.000279      0.000471      0.000000
     24 O     c      -0.000005      0.000039      0.000077      0.000000
     25 O     c       0.000427      0.000284     -0.000143      0.000000
     26 O     c      -0.000258      0.000040      0.000126      0.000000
     27 O     c      -0.000334     -0.000168      0.000182      0.000000
     28 O     c       0.000147     -0.000164      0.000084      0.000000
--------------------------------------------------------------------------------
  Maximum abs         0.000427      0.000350      0.001614      0.000000
--------------------------------------------------------------------------------


  Time to end of optimisation =      14.5610 seconds


  Peak dynamic memory used =       2.03 MB 


  Timing analysis for GULP :

--------------------------------------------------------------------------------
  Task / Subroutine                                          Time (Seconds)
--------------------------------------------------------------------------------
  Calculation of reciprocal space energy and derivatives          0.5510
  Calculation of real space energy and derivatives               13.9004
  Calculation and manipulation of Hessian matrix                  0.0569
  Global summation overhead                                       0.0012
--------------------------------------------------------------------------------
  Total CPU time                                                 14.5610
--------------------------------------------------------------------------------


  Job Finished at 15:51.26 11th June       2024                               

