********************************************************************************
*                       GENERAL UTILITY LATTICE PROGRAM                        *
*                                 Julian Gale                                  *
*                       Curtin Institute for Computation                       *
*                    School of Molecular and Life Sciences                     *
*                    Curtin University, Western Australia                      *
********************************************************************************
* Version = 6.0.0 * Last modified =  12th July 2021                            *
********************************************************************************
*  optimise     - perform optimisation run                                     *
*  conp         - constant pressure calculation                                *
*  conjugate    - use conjugate gradients minimiser                            *
********************************************************************************

  Job Started  at 11:20.13 29th May        2024                               

  Number of CPUs =     1


  Total number of configurations input =      1

********************************************************************************
*  Input for Configuration =   1                                               *
********************************************************************************

  Formula = Ti4O8                                                       

  Number of irreducible atoms/shells =      12


  Total number atoms/shells =      12

  Dimensionality = 3               :  Bulk   



  Cartesian lattice vectors (Angstroms) :

        5.277842    0.296064   -1.021723
       -0.487325    5.856892   -0.322766
       -1.374744   -1.069013    4.652026

  Cell parameters (Angstroms/Degrees):

  a =       5.3840    alpha = 104.0393
  b =       5.8860    beta  = 117.4429
  c =       4.9673    gamma =  90.9189

  Initial cell volume =         134.024851 Angs**3

  Temperature of configuration =   0.00     K 

  Pressure of configuration =         0.000 GPa 

  Fractional coordinates of asymmetric unit :

--------------------------------------------------------------------------------
   No.  Atomic       x           y          z         Charge      Occupancy
        Label      (Frac)      (Frac)     (Frac)        (e)         (Frac)  
--------------------------------------------------------------------------------
      1 Ti    c    0.166984    0.462370    0.120718     2.19600    1.000000    
      2 Ti    c    0.410661 *  0.241286 *  0.847385 *   2.19600    1.000000    
      3 Ti    c    0.664479 *  0.749409 *  0.229192 *   2.19600    1.000000    
      4 Ti    c    0.873760 *  0.704379 *  0.847392 *   2.19600    1.000000    
      5 O     c    0.126173 *  0.750837 *  0.409189 *  -1.09800    1.000000    
      6 O     c    0.015879 *  0.750846 *  0.779287 *  -1.09800    1.000000    
      7 O     c    0.366370 *  0.270449 *  0.039097 *  -1.09800    1.000000    
      8 O     c    0.256074 *  0.270457 *  0.409196 *  -1.09800    1.000000    
      9 O     c    0.619951 *  0.497311 *  0.692286 *  -1.09800    1.000000    
     10 O     c    0.664485 *  0.960407 *  0.692303 *  -1.09800    1.000000    
     11 O     c    0.873763 *  0.079248 *  0.384296 *  -1.09800    1.000000    
     12 O     c    0.410662 *  0.542343 *  0.384290 *  -1.09800    1.000000    
--------------------------------------------------------------------------------



********************************************************************************
*  General input information                                                   *
********************************************************************************

  Species output for all configurations : 

--------------------------------------------------------------------------------
  Species    Type    Atomic    Atomic    Charge       Radii (Angs)     Library
                     Number     Mass       (e)     Cova   Ionic  VDW   Symbol
--------------------------------------------------------------------------------
    Ti       Core       22      47.88   2.196000   1.470  0.000  2.190          
    O        Core        8      16.00  -1.098000   0.730  0.000  1.360          
--------------------------------------------------------------------------------


  Lattice summation method               =    Ewald          (3-D)
                                         =    Parry          (2-D)
                                         =    Saunders et al (1-D)
  Accuracy factor for lattice sums       =   12.000


  Analytic derivatives to be used

  Time limit = Infinity

  Maximum range for interatomic potentials =    100000.000000 Angstroms

  General interatomic potentials :

--------------------------------------------------------------------------------
Atom  Types   Potential      Parameter       Value         Units   Cutoffs(Ang)
  1     2                                                            Min /  Max 
--------------------------------------------------------------------------------
Ti   c Ti   c Buckingham    Buckingham A     31120.100    eV        0.000 15.000
                            Buckingham rho  0.15400000    Ang       
                            Buckingham C     5.2500000    eV*Ang^6  
--------------------------------------------------------------------------------
O    c O    c Buckingham    Buckingham A     11782.700    eV        0.000 15.000
                            Buckingham rho  0.23400000    Ang       
                            Buckingham C     30.220000    eV*Ang^6  
--------------------------------------------------------------------------------
O    c Ti   c Buckingham    Buckingham A     16957.500    eV        0.000 15.000
                            Buckingham rho  0.19400000    Ang       
                            Buckingham C     12.590000    eV*Ang^6  
--------------------------------------------------------------------------------
Ti   c Ti   c Lennard       Lennard-Jones A  1.0000000    eV*Ang^m  0.000 15.000
                            Lennard-Jones B  0.0000000    eV*Ang^n  
                            Exponent m        12          None
                            Exponent n         6          None
--------------------------------------------------------------------------------
O    c O    c Lennard       Lennard-Jones A  1.0000000    eV*Ang^m  0.000 15.000
                            Lennard-Jones B  0.0000000    eV*Ang^n  
                            Exponent m        12          None
                            Exponent n         6          None
--------------------------------------------------------------------------------
O    c Ti   c Lennard       Lennard-Jones A  1.0000000    eV*Ang^m  0.000 15.000
                            Lennard-Jones B  0.0000000    eV*Ang^n  
                            Exponent m        12          None
                            Exponent n         6          None
--------------------------------------------------------------------------------

********************************************************************************
*  Output for configuration   1                                                *
********************************************************************************


  Components of energy : 

--------------------------------------------------------------------------------
  Interatomic potentials     =         191.09820983 eV    
  Monopole - monopole (real) =         -66.81799203 eV    
  Monopole - monopole (recip)=         -95.92989731 eV    
  Monopole - monopole (total)=        -162.74788934 eV    
--------------------------------------------------------------------------------
  Total lattice energy       =          28.35032049 eV    
--------------------------------------------------------------------------------
  Total lattice energy       =            2735.3726 kJ/(mole unit cells)
--------------------------------------------------------------------------------


  Number of variables =       39

  Maximum number of calculations  =          1000
  Maximum Hessian update interval =            10
  Maximum step size               =   1.000000000
  Maximum parameter tolerance     =   0.000010000
  Maximum function  tolerance     =   0.000010000
  Maximum gradient  tolerance     =   0.001000000
  Maximum gradient  component     =   0.010000000

  Symmetry not applied to optimisation

  Cell parameters to be optimised using strains

  Conjugate gradient optimiser to be used

  Lower half triangular hessian to be used

  Minimiser to switch to BFGS with exact hessian
  When gradient norm is less than     0.500000

  Start of bulk optimisation :

  Cycle:      0 Energy:        28.350320  Gnorm:    104.985843  CPU:    0.026
  Cycle:      1 Energy:       -82.077758  Gnorm:     17.194343  CPU:    0.063
  Cycle:      2 Energy:      -121.753621  Gnorm:      7.847483  CPU:    0.105
  Cycle:      3 Energy:      -129.913316  Gnorm:      3.933372  CPU:    0.134
  Cycle:      4 Energy:      -139.322611  Gnorm:      2.075825  CPU:    0.168
  Cycle:      5 Energy:      -143.154708  Gnorm:      2.169885  CPU:    0.202
  Cycle:      6 Energy:      -144.516050  Gnorm:      1.401483  CPU:    0.229
  Cycle:      7 Energy:      -145.546494  Gnorm:      0.908570  CPU:    0.262
  Cycle:      8 Energy:      -145.921279  Gnorm:      0.902539  CPU:    0.289
  Cycle:      9 Energy:      -146.350257  Gnorm:      1.128894  CPU:    0.323
  Cycle:     10 Energy:      -146.622366  Gnorm:      0.678934  CPU:    0.351
  Cycle:     11 Energy:      -146.852444  Gnorm:      0.634337  CPU:    0.384
  Cycle:     12 Energy:      -147.558144  Gnorm:      0.987154  CPU:    0.419
  Cycle:     13 Energy:      -147.799038  Gnorm:      0.741376  CPU:    0.454
  Cycle:     14 Energy:      -148.165452  Gnorm:      0.751672  CPU:    0.490
  Cycle:     15 Energy:      -148.544030  Gnorm:      0.599879  CPU:    0.526
  Cycle:     16 Energy:      -148.781167  Gnorm:      0.622133  CPU:    0.571
  Cycle:     17 Energy:      -149.257349  Gnorm:      0.876705  CPU:    0.619
  Cycle:     18 Energy:      -149.781359  Gnorm:      0.787146  CPU:    0.659
  Cycle:     19 Energy:      -150.545036  Gnorm:      0.940632  CPU:    0.710
  Cycle:     20 Energy:      -150.849223  Gnorm:      0.600928  CPU:    0.762
  Cycle:     21 Energy:      -151.275628  Gnorm:      0.653916  CPU:    0.813
  Cycle:     22 Energy:      -151.739290  Gnorm:      0.742471  CPU:    0.865
  Cycle:     23 Energy:      -152.099513  Gnorm:      0.789585  CPU:    0.908
  Cycle:     24 Energy:      -152.477614  Gnorm:      0.713350  CPU:    0.961
  Cycle:     25 Energy:      -153.083731  Gnorm:      0.878393  CPU:    1.015
  Cycle:     26 Energy:      -153.424609  Gnorm:      0.708298  CPU:    1.050
  Cycle:     27 Energy:      -153.747990  Gnorm:      0.598647  CPU:    1.090
  Cycle:     28 Energy:      -154.051995  Gnorm:      0.541992  CPU:    1.131
  Cycle:     29 Energy:      -154.288968  Gnorm:      0.486432  CPU:    1.172
  ** Hessian calculated **
  Cycle:     30 Energy:      -154.463043  Gnorm:      0.264884  CPU:    1.245
  Cycle:     31 Energy:      -154.536977  Gnorm:      0.228014  CPU:    1.287
  Cycle:     32 Energy:      -154.592447  Gnorm:      0.189531  CPU:    1.328
  Cycle:     33 Energy:      -154.638656  Gnorm:      0.171109  CPU:    1.370
  Cycle:     34 Energy:      -154.692863  Gnorm:      0.211202  CPU:    1.412
  Cycle:     35 Energy:      -154.740256  Gnorm:      0.195527  CPU:    1.453
  Cycle:     36 Energy:      -154.822405  Gnorm:      0.213572  CPU:    1.495
  Cycle:     37 Energy:      -154.899795  Gnorm:      0.206884  CPU:    1.528
  Cycle:     38 Energy:      -154.986021  Gnorm:      0.196812  CPU:    1.570
  Cycle:     39 Energy:      -155.070215  Gnorm:      0.202858  CPU:    1.611
  ** Hessian calculated **
  Cycle:     40 Energy:      -155.511828  Gnorm:      0.270504  CPU:    1.708
  Cycle:     41 Energy:      -155.593718  Gnorm:      0.129734  CPU:    1.761
  ** Hessian calculated **
  Cycle:     42 Energy:      -155.608723  Gnorm:      0.084749  CPU:    1.845
  Cycle:     43 Energy:      -155.616293  Gnorm:      0.060978  CPU:    1.900
  Cycle:     44 Energy:      -155.620663  Gnorm:      0.043528  CPU:    1.943
  Cycle:     45 Energy:      -155.623211  Gnorm:      0.034657  CPU:    1.987
  Cycle:     46 Energy:      -155.625619  Gnorm:      0.044614  CPU:    2.041
  Cycle:     47 Energy:      -155.628187  Gnorm:      0.046953  CPU:    2.095
  Cycle:     48 Energy:      -155.631138  Gnorm:      0.047936  CPU:    2.149
  Cycle:     49 Energy:      -155.634813  Gnorm:      0.052250  CPU:    2.203
  Cycle:     50 Energy:      -155.639279  Gnorm:      0.049320  CPU:    2.257
  Cycle:     51 Energy:      -155.645340  Gnorm:      0.066150  CPU:    2.311
  ** Hessian calculated **
  Cycle:     52 Energy:      -155.649553  Gnorm:      0.049612  CPU:    2.396
  Cycle:     53 Energy:      -155.652980  Gnorm:      0.052076  CPU:    2.450
  Cycle:     54 Energy:      -155.656606  Gnorm:      0.038697  CPU:    2.503
  Cycle:     55 Energy:      -155.658603  Gnorm:      0.041822  CPU:    2.547
  Cycle:     56 Energy:      -155.661573  Gnorm:      0.055135  CPU:    2.601
  Cycle:     57 Energy:      -155.666360  Gnorm:      0.053660  CPU:    2.655
  Cycle:     58 Energy:      -155.675626  Gnorm:      0.085594  CPU:    2.709
  Cycle:     59 Energy:      -155.699691  Gnorm:      0.131156  CPU:    2.772
  Cycle:     60 Energy:      -155.734241  Gnorm:      0.144241  CPU:    2.826
  Cycle:     61 Energy:      -155.773158  Gnorm:      0.162185  CPU:    2.878
  ** Hessian calculated **
  Cycle:     62 Energy:      -155.946859  Gnorm:      0.208809  CPU:    2.981
  Cycle:     63 Energy:      -155.986217  Gnorm:      0.187926  CPU:    3.034
  Cycle:     64 Energy:      -156.034389  Gnorm:      0.122851  CPU:    3.077
  Cycle:     65 Energy:      -156.073881  Gnorm:      0.116413  CPU:    3.130
  Cycle:     66 Energy:      -156.114858  Gnorm:      0.081047  CPU:    3.184
  Cycle:     67 Energy:      -156.133384  Gnorm:      0.071961  CPU:    3.227
  Cycle:     68 Energy:      -156.141593  Gnorm:      0.047874  CPU:    3.270
  Cycle:     69 Energy:      -156.144587  Gnorm:      0.020834  CPU:    3.313
  Cycle:     70 Energy:      -156.145190  Gnorm:      0.010083  CPU:    3.366
  Cycle:     71 Energy:      -156.145355  Gnorm:      0.005648  CPU:    3.409
  ** Hessian calculated **
  Cycle:     72 Energy:      -156.145423  Gnorm:      0.001332  CPU:    3.492


  **** Optimisation achieved ****


  Final energy =    -156.14542734 eV      
  Final Gnorm  =       0.00000870

  Components of energy : 

--------------------------------------------------------------------------------
  Interatomic potentials     =          12.60808131 eV    
  Monopole - monopole (real) =         -70.31050590 eV    
  Monopole - monopole (recip)=         -98.44300275 eV    
  Monopole - monopole (total)=        -168.75350866 eV    
--------------------------------------------------------------------------------
  Total lattice energy       =        -156.14542734 eV    
--------------------------------------------------------------------------------
  Total lattice energy       =          -15065.6468 kJ/(mole unit cells)
--------------------------------------------------------------------------------

  Final fractional coordinates of atoms :

--------------------------------------------------------------------------------
   No.  Atomic        x           y          z          Radius
        Label       (Frac)      (Frac)     (Frac)       (Angs) 
--------------------------------------------------------------------------------
     1  Ti    c     0.166984    0.462370    0.120718    0.000000
     2  Ti    c     0.441344    0.238258    0.798745    0.000000
     3  Ti    c     0.638991    0.877817    0.321847    0.000000
     4  Ti    c     0.901204    0.874298    0.043631    0.000000
     5  O     c     0.040880    0.939221    0.493401    0.000000
     6  O     c     0.211296    0.811176    0.085292    0.000000
     7  O     c     0.412923    0.491687    0.022589    0.000000
     8  O     c     0.222559    0.233839    0.351506    0.000000
     9  O     c     0.830606    0.511342    0.036747    0.000000
    10  O     c     0.847483    0.164960    0.714448    0.000000
    11  O     c     0.618888    0.010348    0.013020    0.000000
    12  O     c     0.582952    0.703134    0.563422    0.000000
--------------------------------------------------------------------------------

  Final Cartesian lattice vectors (Angstroms) :

        6.000086   -0.298236   -2.049357
       -1.057179    5.569544   -0.453166
       -2.379712   -0.915548    5.167124


  Final cell parameters and derivatives :

--------------------------------------------------------------------------------
       a            6.347428 Angstrom     dE/de1(xx)     0.000005 eV/strain
       b            5.687074 Angstrom     dE/de2(yy)    -0.000061 eV/strain
       c            5.761982 Angstrom     dE/de3(zz)    -0.000065 eV/strain
       alpha       98.643991 Degrees      dE/de4(yz)    -0.000010 eV/strain
       beta       132.257879 Degrees      dE/de5(xz)    -0.000000 eV/strain
       gamma      101.303537 Degrees      dE/de6(xy)     0.000009 eV/strain
--------------------------------------------------------------------------------

  Primitive cell volume =           139.087928 Angs**3

  Density of cell =      3.814737 g/cm**3

  Non-primitive cell volume =           139.087928 Angs**3


  Final internal derivatives :

--------------------------------------------------------------------------------
   No.  Atomic          a             b             c           Radius
        Label          (eV)          (eV)          (eV)        (eV/Angs)
--------------------------------------------------------------------------------
      1 Ti    c       0.000000      0.000000      0.000000      0.000000
      2 Ti    c      -0.000010     -0.000074      0.000109      0.000000
      3 Ti    c       0.000024      0.000034      0.000018      0.000000
      4 Ti    c       0.000022      0.000066     -0.000082      0.000000
      5 O     c      -0.000025     -0.000014      0.000076      0.000000
      6 O     c       0.000004     -0.000056      0.000026      0.000000
      7 O     c       0.000132     -0.000033     -0.000119      0.000000
      8 O     c       0.000008     -0.000012      0.000058      0.000000
      9 O     c       0.000019     -0.000041      0.000002      0.000000
     10 O     c       0.000023     -0.000008     -0.000054      0.000000
     11 O     c      -0.000059      0.000100     -0.000052      0.000000
     12 O     c      -0.000055      0.000059     -0.000033      0.000000
--------------------------------------------------------------------------------
  Maximum abs         0.000132      0.000100      0.000119      0.000000
--------------------------------------------------------------------------------


  Time to end of optimisation =       3.5360 seconds


  Peak dynamic memory used =       1.84 MB 


  Timing analysis for GULP :

--------------------------------------------------------------------------------
  Task / Subroutine                                          Time (Seconds)
--------------------------------------------------------------------------------
  Calculation of reciprocal space energy and derivatives          0.0965
  Calculation of real space energy and derivatives                3.4130
  Calculation and manipulation of Hessian matrix                  0.0007
  Calculation of matrix inversion                                 0.0012
  Global summation overhead                                       0.0005
--------------------------------------------------------------------------------
  Total CPU time                                                  3.5360
--------------------------------------------------------------------------------


  Job Finished at 11:20.16 29th May        2024                               

