********************************************************************************
*                       GENERAL UTILITY LATTICE PROGRAM                        *
*                                 Julian Gale                                  *
*                       Curtin Institute for Computation                       *
*                    School of Molecular and Life Sciences                     *
*                    Curtin University, Western Australia                      *
********************************************************************************
* Version = 6.0.0 * Last modified =  12th July 2021                            *
********************************************************************************
*  optimise     - perform optimisation run                                     *
*  conp         - constant pressure calculation                                *
*  conjugate    - use conjugate gradients minimiser                            *
********************************************************************************

  Job Started  at 11:20.51 29th May        2024                               

  Number of CPUs =     1


  Total number of configurations input =      1

********************************************************************************
*  Input for Configuration =   1                                               *
********************************************************************************

  Formula = Ti4O8                                                       

  Number of irreducible atoms/shells =      12


  Total number atoms/shells =      12

  Dimensionality = 3               :  Bulk   



  Cartesian lattice vectors (Angstroms) :

        5.164055    1.111628   -4.903067
        0.099461    7.802872   -1.047111
       -2.250483   -1.833825    5.637236

  Cell parameters (Angstroms/Degrees):

  a =       7.2072    alpha = 114.1631
  b =       7.8734    beta  = 154.6528
  c =       6.3408    gamma =  75.3814

  Initial cell volume =         134.024851 Angs**3

  Temperature of configuration =   0.00     K 

  Pressure of configuration =         0.000 GPa 

  Fractional coordinates of asymmetric unit :

--------------------------------------------------------------------------------
   No.  Atomic       x           y          z         Charge      Occupancy
        Label      (Frac)      (Frac)     (Frac)        (e)         (Frac)  
--------------------------------------------------------------------------------
      1 Ti    c    0.570021    0.346147    0.666491     2.19600    1.000000    
      2 Ti    c    0.762996 *  0.056675 *  0.473511 *   2.19600    1.000000    
      3 Ti    c    0.335669 *  0.733174 *  0.370069 *   2.19600    1.000000    
      4 Ti    c    0.721625 *  0.733181 *  0.072741 *   2.19600    1.000000    
      5 O     c    0.409420 *  0.040484 *  0.055174 *  -1.09800    1.000000    
      6 O     c    0.151692 *  0.362336 *  0.312924 *  -1.09800    1.000000    
      7 O     c    0.730609 *  0.265843 *  0.505888 *  -1.09800    1.000000    
      8 O     c    0.602401 *  0.136981 *  0.634109 *  -1.09800    1.000000    
      9 O     c    0.424291 *  0.733181 *  0.072742 *  -1.09800    1.000000    
     10 O     c    0.071122 *  0.501414 *  0.612879 *  -1.09800    1.000000    
     11 O     c    0.038334 *  0.733174 *  0.547302 *  -1.09800    1.000000    
     12 O     c    0.457077 *  0.501418 *  0.612886 *  -1.09800    1.000000    
--------------------------------------------------------------------------------



********************************************************************************
*  General input information                                                   *
********************************************************************************

  Species output for all configurations : 

--------------------------------------------------------------------------------
  Species    Type    Atomic    Atomic    Charge       Radii (Angs)     Library
                     Number     Mass       (e)     Cova   Ionic  VDW   Symbol
--------------------------------------------------------------------------------
    Ti       Core       22      47.88   2.196000   1.470  0.000  2.190          
    O        Core        8      16.00  -1.098000   0.730  0.000  1.360          
--------------------------------------------------------------------------------


  Lattice summation method               =    Ewald          (3-D)
                                         =    Parry          (2-D)
                                         =    Saunders et al (1-D)
  Accuracy factor for lattice sums       =   12.000


  Analytic derivatives to be used

  Time limit = Infinity

  Maximum range for interatomic potentials =    100000.000000 Angstroms

  General interatomic potentials :

--------------------------------------------------------------------------------
Atom  Types   Potential      Parameter       Value         Units   Cutoffs(Ang)
  1     2                                                            Min /  Max 
--------------------------------------------------------------------------------
Ti   c Ti   c Buckingham    Buckingham A     31120.100    eV        0.000 15.000
                            Buckingham rho  0.15400000    Ang       
                            Buckingham C     5.2500000    eV*Ang^6  
--------------------------------------------------------------------------------
O    c O    c Buckingham    Buckingham A     11782.700    eV        0.000 15.000
                            Buckingham rho  0.23400000    Ang       
                            Buckingham C     30.220000    eV*Ang^6  
--------------------------------------------------------------------------------
O    c Ti   c Buckingham    Buckingham A     16957.500    eV        0.000 15.000
                            Buckingham rho  0.19400000    Ang       
                            Buckingham C     12.590000    eV*Ang^6  
--------------------------------------------------------------------------------
Ti   c Ti   c Lennard       Lennard-Jones A  1.0000000    eV*Ang^m  0.000 15.000
                            Lennard-Jones B  0.0000000    eV*Ang^n  
                            Exponent m        12          None
                            Exponent n         6          None
--------------------------------------------------------------------------------
O    c O    c Lennard       Lennard-Jones A  1.0000000    eV*Ang^m  0.000 15.000
                            Lennard-Jones B  0.0000000    eV*Ang^n  
                            Exponent m        12          None
                            Exponent n         6          None
--------------------------------------------------------------------------------
O    c Ti   c Lennard       Lennard-Jones A  1.0000000    eV*Ang^m  0.000 15.000
                            Lennard-Jones B  0.0000000    eV*Ang^n  
                            Exponent m        12          None
                            Exponent n         6          None
--------------------------------------------------------------------------------

********************************************************************************
*  Output for configuration   1                                                *
********************************************************************************


  Components of energy : 

--------------------------------------------------------------------------------
  Interatomic potentials     =         201.29732435 eV    
  Monopole - monopole (real) =         -56.53312184 eV    
  Monopole - monopole (recip)=         -86.40959274 eV    
  Monopole - monopole (total)=        -142.94271457 eV    
--------------------------------------------------------------------------------
  Total lattice energy       =          58.35460978 eV    
--------------------------------------------------------------------------------
  Total lattice energy       =            5630.3278 kJ/(mole unit cells)
--------------------------------------------------------------------------------


  Number of variables =       39

  Maximum number of calculations  =          1000
  Maximum Hessian update interval =            10
  Maximum step size               =   1.000000000
  Maximum parameter tolerance     =   0.000010000
  Maximum function  tolerance     =   0.000010000
  Maximum gradient  tolerance     =   0.001000000
  Maximum gradient  component     =   0.010000000

  Symmetry not applied to optimisation

  Cell parameters to be optimised using strains

  Conjugate gradient optimiser to be used

  Lower half triangular hessian to be used

  Minimiser to switch to BFGS with exact hessian
  When gradient norm is less than     0.500000

  Start of bulk optimisation :

  Cycle:      0 Energy:        58.354610  Gnorm:     76.079034  CPU:    0.039
  Cycle:      1 Energy:       -69.755098  Gnorm:     17.043458  CPU:    0.112
  Cycle:      2 Energy:      -100.889731  Gnorm:      7.798614  CPU:    0.163
  Cycle:      3 Energy:      -109.179942  Gnorm:      8.028345  CPU:    0.221
  Cycle:      4 Energy:      -120.467818  Gnorm:      6.213297  CPU:    0.291
  Cycle:      5 Energy:      -128.857999  Gnorm:      5.821407  CPU:    0.346
  Cycle:      6 Energy:      -131.795656  Gnorm:      2.957442  CPU:    0.392
  Cycle:      7 Energy:      -137.939798  Gnorm:      2.409390  CPU:    0.456
  Cycle:      8 Energy:      -139.334971  Gnorm:      2.550853  CPU:    0.501
  Cycle:      9 Energy:      -141.525808  Gnorm:      2.302252  CPU:    0.555
  Cycle:     10 Energy:      -142.497558  Gnorm:      1.275301  CPU:    0.598
  Cycle:     11 Energy:      -143.648529  Gnorm:      1.347207  CPU:    0.654
  Cycle:     12 Energy:      -145.097223  Gnorm:      2.193806  CPU:    0.707
  Cycle:     13 Energy:      -146.254184  Gnorm:      2.096175  CPU:    0.750
  Cycle:     14 Energy:      -147.431603  Gnorm:      1.138125  CPU:    0.794
  Cycle:     15 Energy:      -147.684517  Gnorm:      0.701409  CPU:    0.837
  Cycle:     16 Energy:      -147.966673  Gnorm:      0.677668  CPU:    0.893
  Cycle:     17 Energy:      -148.452802  Gnorm:      0.922623  CPU:    0.945
  Cycle:     18 Energy:      -148.916562  Gnorm:      1.019342  CPU:    0.987
  Cycle:     19 Energy:      -149.536892  Gnorm:      1.081278  CPU:    1.033
  Cycle:     20 Energy:      -149.839936  Gnorm:      0.836404  CPU:    1.075
  Cycle:     21 Energy:      -150.199855  Gnorm:      0.512638  CPU:    1.130
  Cycle:     22 Energy:      -150.385445  Gnorm:      0.739982  CPU:    1.183
  Cycle:     23 Energy:      -150.774951  Gnorm:      0.776117  CPU:    1.237
  Cycle:     24 Energy:      -151.053612  Gnorm:      0.587353  CPU:    1.279
  Cycle:     25 Energy:      -151.257062  Gnorm:      0.478480  CPU:    1.330
  ** Hessian calculated **
  Cycle:     26 Energy:      -151.525347  Gnorm:      0.695056  CPU:    1.403
  Cycle:     27 Energy:      -151.770364  Gnorm:      0.512744  CPU:    1.441
  Cycle:     28 Energy:      -151.934275  Gnorm:      0.578553  CPU:    1.471
  Cycle:     29 Energy:      -152.200102  Gnorm:      0.666885  CPU:    1.506
  Cycle:     30 Energy:      -152.463049  Gnorm:      0.424933  CPU:    1.529
  Cycle:     31 Energy:      -152.620737  Gnorm:      0.265125  CPU:    1.552
  Cycle:     32 Energy:      -152.685301  Gnorm:      0.239966  CPU:    1.581
  Cycle:     33 Energy:      -152.740638  Gnorm:      0.227121  CPU:    1.613
  Cycle:     34 Energy:      -152.821803  Gnorm:      0.255405  CPU:    1.641
  Cycle:     35 Energy:      -152.905000  Gnorm:      0.282618  CPU:    1.670
  ** Hessian calculated **
  Cycle:     36 Energy:      -153.341025  Gnorm:      0.268220  CPU:    1.742
  ** Hessian calculated **
  Cycle:     37 Energy:      -153.426244  Gnorm:      0.174657  CPU:    1.801
  Cycle:     38 Energy:      -153.456595  Gnorm:      0.136300  CPU:    1.827
  ** Hessian calculated **
  Cycle:     39 Energy:      -153.469442  Gnorm:      0.097099  CPU:    1.884
  Cycle:     40 Energy:      -153.476140  Gnorm:      0.080658  CPU:    1.915
  Cycle:     41 Energy:      -153.481480  Gnorm:      0.065488  CPU:    1.947
  Cycle:     42 Energy:      -153.484224  Gnorm:      0.065348  CPU:    1.973
  Cycle:     43 Energy:      -153.488528  Gnorm:      0.052541  CPU:    2.001
  Cycle:     44 Energy:      -153.491898  Gnorm:      0.067630  CPU:    2.025
  Cycle:     45 Energy:      -153.499466  Gnorm:      0.072418  CPU:    2.053
  Cycle:     46 Energy:      -153.503302  Gnorm:      0.052894  CPU:    2.080
  Cycle:     47 Energy:      -153.508058  Gnorm:      0.059455  CPU:    2.108
  Cycle:     48 Energy:      -153.515003  Gnorm:      0.069660  CPU:    2.138
  ** Hessian calculated **
  Cycle:     49 Energy:      -153.518865  Gnorm:      0.049733  CPU:    2.195
  Cycle:     50 Energy:      -153.521374  Gnorm:      0.047980  CPU:    2.223
  Cycle:     51 Energy:      -153.523086  Gnorm:      0.042126  CPU:    2.247
  Cycle:     52 Energy:      -153.524988  Gnorm:      0.048907  CPU:    2.276
  Cycle:     53 Energy:      -153.526561  Gnorm:      0.029912  CPU:    2.308
  Cycle:     54 Energy:      -153.527931  Gnorm:      0.033395  CPU:    2.337
  Cycle:     55 Energy:      -153.529212  Gnorm:      0.027284  CPU:    2.366
  Cycle:     56 Energy:      -153.531302  Gnorm:      0.044853  CPU:    2.395
  Cycle:     57 Energy:      -153.533134  Gnorm:      0.046345  CPU:    2.422
  Cycle:     58 Energy:      -153.536120  Gnorm:      0.054578  CPU:    2.450
  ** Hessian calculated **
  Cycle:     59 Energy:      -153.538435  Gnorm:      0.044411  CPU:    2.505
  Cycle:     60 Energy:      -153.539977  Gnorm:      0.039714  CPU:    2.538
  Cycle:     61 Energy:      -153.541905  Gnorm:      0.037888  CPU:    2.567
  Cycle:     62 Energy:      -153.543113  Gnorm:      0.039357  CPU:    2.590
  Cycle:     63 Energy:      -153.544507  Gnorm:      0.042384  CPU:    2.620
  Cycle:     64 Energy:      -153.546177  Gnorm:      0.037193  CPU:    2.649
  Cycle:     65 Energy:      -153.549294  Gnorm:      0.055895  CPU:    2.681
  Cycle:     66 Energy:      -153.552976  Gnorm:      0.052990  CPU:    2.710
  Cycle:     67 Energy:      -153.561102  Gnorm:      0.113007  CPU:    2.740
  Cycle:     68 Energy:      -153.598153  Gnorm:      0.221605  CPU:    2.789
  ** Hessian calculated **
  Cycle:     69 Energy:      -153.641897  Gnorm:      0.202294  CPU:    2.852
  Cycle:     70 Energy:      -153.675809  Gnorm:      0.179672  CPU:    2.882
  Cycle:     71 Energy:      -153.705931  Gnorm:      0.167054  CPU:    2.924
  Cycle:     72 Energy:      -153.728929  Gnorm:      0.159650  CPU:    2.964
  Cycle:     73 Energy:      -153.768796  Gnorm:      0.235661  CPU:    3.004
  Cycle:     74 Energy:      -153.899937  Gnorm:      0.425532  CPU:    3.053
  Cycle:     75 Energy:      -154.183759  Gnorm:      0.522514  CPU:    3.102
  Cycle:     76 Energy:      -154.428858  Gnorm:      0.448616  CPU:    3.160
  Cycle:     77 Energy:      -154.608907  Gnorm:      0.371717  CPU:    3.214
  Cycle:     78 Energy:      -154.789366  Gnorm:      0.405755  CPU:    3.273
  ** Hessian calculated **
  Cycle:     79 Energy:      -154.878145  Gnorm:      0.256620  CPU:    3.359
  Cycle:     80 Energy:      -154.940910  Gnorm:      0.286918  CPU:    3.417
  Cycle:     81 Energy:      -155.033896  Gnorm:      0.186836  CPU:    3.472
  Cycle:     82 Energy:      -155.109423  Gnorm:      0.277629  CPU:    3.530
  Cycle:     83 Energy:      -155.179014  Gnorm:      0.232350  CPU:    3.586
  Cycle:     84 Energy:      -155.258787  Gnorm:      0.175637  CPU:    3.644
  Cycle:     85 Energy:      -155.320220  Gnorm:      0.189382  CPU:    3.689
  Cycle:     86 Energy:      -155.360946  Gnorm:      0.170624  CPU:    3.723
  Cycle:     87 Energy:      -155.407496  Gnorm:      0.212590  CPU:    3.768
  Cycle:     88 Energy:      -155.481963  Gnorm:      0.288232  CPU:    3.810
  ** Hessian calculated **
  Cycle:     89 Energy:      -155.551798  Gnorm:      0.204127  CPU:    3.887
  Cycle:     90 Energy:      -155.616091  Gnorm:      0.237301  CPU:    3.929
  Cycle:     91 Energy:      -155.713696  Gnorm:      0.251944  CPU:    3.974
  Cycle:     92 Energy:      -155.802430  Gnorm:      0.237535  CPU:    4.001
  Cycle:     93 Energy:      -155.884838  Gnorm:      0.207582  CPU:    4.029
  Cycle:     94 Energy:      -155.948267  Gnorm:      0.176273  CPU:    4.062
  Cycle:     95 Energy:      -155.985294  Gnorm:      0.133801  CPU:    4.093
  Cycle:     96 Energy:      -156.008664  Gnorm:      0.106341  CPU:    4.120
  Cycle:     97 Energy:      -156.021354  Gnorm:      0.083405  CPU:    4.147
  Cycle:     98 Energy:      -156.031356  Gnorm:      0.095091  CPU:    4.186
  ** Hessian calculated **
  Cycle:     99 Energy:      -156.113218  Gnorm:      0.068027  CPU:    4.288
  Cycle:    100 Energy:      -156.190425  Gnorm:      0.122378  CPU:    4.337
  Cycle:    101 Energy:      -156.238054  Gnorm:      0.137455  CPU:    4.383
  Cycle:    102 Energy:      -156.251794  Gnorm:      0.088929  CPU:    4.424
  Cycle:    103 Energy:      -156.289091  Gnorm:      0.123165  CPU:    4.477
  Cycle:    104 Energy:      -156.323416  Gnorm:      0.195922  CPU:    4.510
  Cycle:    105 Energy:      -156.359639  Gnorm:      0.108261  CPU:    4.551
  Cycle:    106 Energy:      -156.375675  Gnorm:      0.052988  CPU:    4.588
  Cycle:    107 Energy:      -156.380334  Gnorm:      0.023252  CPU:    4.621
  Cycle:    108 Energy:      -156.381947  Gnorm:      0.020533  CPU:    4.655
  ** Hessian calculated **
  Cycle:    109 Energy:      -156.382973  Gnorm:      0.000543  CPU:    4.738


  **** Optimisation achieved ****


  Final energy =    -156.38297320 eV      
  Final Gnorm  =       0.00004369

  Components of energy : 

--------------------------------------------------------------------------------
  Interatomic potentials     =          12.60338402 eV    
  Monopole - monopole (real) =         -68.82481707 eV    
  Monopole - monopole (recip)=        -100.16154015 eV    
  Monopole - monopole (total)=        -168.98635721 eV    
--------------------------------------------------------------------------------
  Total lattice energy       =        -156.38297320 eV    
--------------------------------------------------------------------------------
  Total lattice energy       =          -15088.5664 kJ/(mole unit cells)
--------------------------------------------------------------------------------

  Final fractional coordinates of atoms :

--------------------------------------------------------------------------------
   No.  Atomic        x           y          z          Radius
        Label       (Frac)      (Frac)     (Frac)       (Angs) 
--------------------------------------------------------------------------------
     1  Ti    c     0.570021    0.346147    0.666491    0.000000
     2  Ti    c     0.979917    0.069554    0.403043    0.000000
     3  Ti    c     0.797006    0.583541    0.288047    0.000000
     4  Ti    c     0.772655    0.899223    0.744174    0.000000
     5  O     c     0.524569    0.088076    0.853184    0.000000
     6  O     c     0.011624    0.311803    0.231777    0.000000
     7  O     c     0.792659    0.150792    0.595396    0.000000
     8  O     c     0.904216    0.831706    0.504625    0.000000
     9  O     c     0.784979    0.701834    0.972386    0.000000
    10  O     c     0.334735    0.487513    0.775828    0.000000
    11  O     c     0.220359    0.949737    0.270022    0.000000
    12  O     c     0.585244    0.521190    0.427640    0.000000
--------------------------------------------------------------------------------

  Final Cartesian lattice vectors (Angstroms) :

        3.776687    0.412269   -3.678925
        1.011541    7.084287    0.787719
       -0.423287   -0.488919    5.301349


  Final cell parameters and derivatives :

--------------------------------------------------------------------------------
       a            5.288461 Angstrom     dE/de1(xx)     0.000304 eV/strain
       b            7.199364 Angstrom     dE/de2(yy)     0.000053 eV/strain
       c            5.340648 Angstrom     dE/de3(zz)     0.000356 eV/strain
       alpha       89.576555 Degrees      dE/de4(yz)    -0.000079 eV/strain
       beta       138.961614 Degrees      dE/de5(xz)    -0.000135 eV/strain
       gamma       84.206999 Degrees      dE/de6(xy)    -0.000028 eV/strain
--------------------------------------------------------------------------------

  Primitive cell volume =           131.732093 Angs**3

  Density of cell =      4.027750 g/cm**3

  Non-primitive cell volume =           131.732093 Angs**3


  Final internal derivatives :

--------------------------------------------------------------------------------
   No.  Atomic          a             b             c           Radius
        Label          (eV)          (eV)          (eV)        (eV/Angs)
--------------------------------------------------------------------------------
      1 Ti    c       0.000000      0.000000      0.000000      0.000000
      2 Ti    c      -0.000179     -0.000344      0.000019      0.000000
      3 Ti    c       0.000474      0.000393     -0.000303      0.000000
      4 Ti    c       0.000261      0.000070     -0.000422      0.000000
      5 O     c      -0.000053     -0.000020      0.000034      0.000000
      6 O     c       0.000115     -0.000083     -0.000083      0.000000
      7 O     c       0.000161     -0.000276     -0.000152      0.000000
      8 O     c      -0.000027      0.000362      0.000193      0.000000
      9 O     c      -0.000148      0.000059      0.000149      0.000000
     10 O     c      -0.000306     -0.000195      0.000177      0.000000
     11 O     c       0.000178      0.000056     -0.000080      0.000000
     12 O     c      -0.000786     -0.000089      0.000760      0.000000
--------------------------------------------------------------------------------
  Maximum abs         0.000786      0.000393      0.000760      0.000000
--------------------------------------------------------------------------------


  Time to end of optimisation =       4.7719 seconds


  Peak dynamic memory used =       1.84 MB 


  Timing analysis for GULP :

--------------------------------------------------------------------------------
  Task / Subroutine                                          Time (Seconds)
--------------------------------------------------------------------------------
  Calculation of reciprocal space energy and derivatives          0.1541
  Calculation of real space energy and derivatives                4.5840
  Calculation and manipulation of Hessian matrix                  0.0012
  Calculation of matrix inversion                                 0.0021
  Global summation overhead                                       0.0007
--------------------------------------------------------------------------------
  Total CPU time                                                  4.7720
--------------------------------------------------------------------------------


  Job Finished at 11:20.56 29th May        2024                               

