********************************************************************************
*                       GENERAL UTILITY LATTICE PROGRAM                        *
*                                 Julian Gale                                  *
*                       Curtin Institute for Computation                       *
*                    School of Molecular and Life Sciences                     *
*                    Curtin University, Western Australia                      *
********************************************************************************
* Version = 6.0.0 * Last modified =  12th July 2021                            *
********************************************************************************
*  optimise     - perform optimisation run                                     *
*  conp         - constant pressure calculation                                *
*  conjugate    - use conjugate gradients minimiser                            *
********************************************************************************

  Job Started  at 11:20.29 29th May        2024                               

  Number of CPUs =     1


  Total number of configurations input =      1

********************************************************************************
*  Input for Configuration =   1                                               *
********************************************************************************

  Formula = Ti4O8                                                       

  Number of irreducible atoms/shells =      12


  Total number atoms/shells =      12

  Dimensionality = 3               :  Bulk   



  Cartesian lattice vectors (Angstroms) :

        5.060968    0.403509    0.270716
       -0.463125    5.999657   -0.047174
        0.381159    0.190852    4.406723

  Cell parameters (Angstroms/Degrees):

  a =       5.0842    alpha =  88.3640
  b =       6.0177    beta  =  81.8295
  c =       4.4273    gamma =  89.8796

  Initial cell volume =         134.024851 Angs**3

  Temperature of configuration =   0.00     K 

  Pressure of configuration =         0.000 GPa 

  Fractional coordinates of asymmetric unit :

--------------------------------------------------------------------------------
   No.  Atomic       x           y          z         Charge      Occupancy
        Label      (Frac)      (Frac)     (Frac)        (e)         (Frac)  
--------------------------------------------------------------------------------
      1 Ti    c    0.472148    0.515748    0.865422     2.19600    1.000000    
      2 Ti    c    0.949323 *  0.515747 *  0.388249 *   2.19600    1.000000    
      3 Ti    c    0.900212 *  0.917614 *  0.217641 *   2.19600    1.000000    
      4 Ti    c    0.970352 *  0.866831 *  0.702528 *   2.19600    1.000000    
      5 O     c    0.317113 *  0.360713 *  0.233215 *  -1.09800    1.000000    
      6 O     c    0.627185 *  0.193612 *  0.710385 *  -1.09800    1.000000    
      7 O     c    0.150010 *  0.360711 *  0.710388 *  -1.09800    1.000000    
      8 O     c    0.794287 *  0.193611 *  0.233211 *  -1.09800    1.000000    
      9 O     c    0.525380 *  0.999243 *  0.516298 *  -1.09800    1.000000    
     10 O     c    0.256773 *  0.801869 *  0.088075 *  -1.09800    1.000000    
     11 O     c    0.326913 *  0.751088 *  0.558116 *  -1.09800    1.000000    
     12 O     c    0.701745 *  0.654612 *  0.259458 *  -1.09800    1.000000    
--------------------------------------------------------------------------------



********************************************************************************
*  General input information                                                   *
********************************************************************************

  Species output for all configurations : 

--------------------------------------------------------------------------------
  Species    Type    Atomic    Atomic    Charge       Radii (Angs)     Library
                     Number     Mass       (e)     Cova   Ionic  VDW   Symbol
--------------------------------------------------------------------------------
    Ti       Core       22      47.88   2.196000   1.470  0.000  2.190          
    O        Core        8      16.00  -1.098000   0.730  0.000  1.360          
--------------------------------------------------------------------------------


  Lattice summation method               =    Ewald          (3-D)
                                         =    Parry          (2-D)
                                         =    Saunders et al (1-D)
  Accuracy factor for lattice sums       =   12.000


  Analytic derivatives to be used

  Time limit = Infinity

  Maximum range for interatomic potentials =    100000.000000 Angstroms

  General interatomic potentials :

--------------------------------------------------------------------------------
Atom  Types   Potential      Parameter       Value         Units   Cutoffs(Ang)
  1     2                                                            Min /  Max 
--------------------------------------------------------------------------------
Ti   c Ti   c Buckingham    Buckingham A     31120.100    eV        0.000 15.000
                            Buckingham rho  0.15400000    Ang       
                            Buckingham C     5.2500000    eV*Ang^6  
--------------------------------------------------------------------------------
O    c O    c Buckingham    Buckingham A     11782.700    eV        0.000 15.000
                            Buckingham rho  0.23400000    Ang       
                            Buckingham C     30.220000    eV*Ang^6  
--------------------------------------------------------------------------------
O    c Ti   c Buckingham    Buckingham A     16957.500    eV        0.000 15.000
                            Buckingham rho  0.19400000    Ang       
                            Buckingham C     12.590000    eV*Ang^6  
--------------------------------------------------------------------------------
Ti   c Ti   c Lennard       Lennard-Jones A  1.0000000    eV*Ang^m  0.000 15.000
                            Lennard-Jones B  0.0000000    eV*Ang^n  
                            Exponent m        12          None
                            Exponent n         6          None
--------------------------------------------------------------------------------
O    c O    c Lennard       Lennard-Jones A  1.0000000    eV*Ang^m  0.000 15.000
                            Lennard-Jones B  0.0000000    eV*Ang^n  
                            Exponent m        12          None
                            Exponent n         6          None
--------------------------------------------------------------------------------
O    c Ti   c Lennard       Lennard-Jones A  1.0000000    eV*Ang^m  0.000 15.000
                            Lennard-Jones B  0.0000000    eV*Ang^n  
                            Exponent m        12          None
                            Exponent n         6          None
--------------------------------------------------------------------------------

********************************************************************************
*  Output for configuration   1                                                *
********************************************************************************


  Components of energy : 

--------------------------------------------------------------------------------
  Interatomic potentials     =          27.06002791 eV    
  Monopole - monopole (real) =         -28.78695581 eV    
  Monopole - monopole (recip)=         -89.66549951 eV    
  Monopole - monopole (total)=        -118.45245532 eV    
--------------------------------------------------------------------------------
  Total lattice energy       =         -91.39242742 eV    
--------------------------------------------------------------------------------
  Total lattice energy       =           -8817.9722 kJ/(mole unit cells)
--------------------------------------------------------------------------------


  Number of variables =       39

  Maximum number of calculations  =          1000
  Maximum Hessian update interval =            10
  Maximum step size               =   1.000000000
  Maximum parameter tolerance     =   0.000010000
  Maximum function  tolerance     =   0.000010000
  Maximum gradient  tolerance     =   0.001000000
  Maximum gradient  component     =   0.010000000

  Symmetry not applied to optimisation

  Cell parameters to be optimised using strains

  Conjugate gradient optimiser to be used

  Lower half triangular hessian to be used

  Minimiser to switch to BFGS with exact hessian
  When gradient norm is less than     0.500000

  Start of bulk optimisation :

  Cycle:      0 Energy:       -91.392427  Gnorm:     12.169406  CPU:    0.022
  Cycle:      1 Energy:      -121.593697  Gnorm:      5.154804  CPU:    0.055
  Cycle:      2 Energy:      -129.965259  Gnorm:      2.892459  CPU:    0.078
  Cycle:      3 Energy:      -135.354689  Gnorm:      2.626941  CPU:    0.108
  Cycle:      4 Energy:      -142.112244  Gnorm:      2.058034  CPU:    0.137
  Cycle:      5 Energy:      -144.529915  Gnorm:      1.867814  CPU:    0.163
  Cycle:      6 Energy:      -146.953328  Gnorm:      1.191484  CPU:    0.190
  Cycle:      7 Energy:      -148.214529  Gnorm:      1.002285  CPU:    0.220
  Cycle:      8 Energy:      -149.551724  Gnorm:      0.909953  CPU:    0.247
  Cycle:      9 Energy:      -150.362640  Gnorm:      1.220747  CPU:    0.270
  Cycle:     10 Energy:      -150.967851  Gnorm:      0.771106  CPU:    0.293
  Cycle:     11 Energy:      -151.502552  Gnorm:      0.647962  CPU:    0.324
  Cycle:     12 Energy:      -152.121684  Gnorm:      0.534525  CPU:    0.356
  Cycle:     13 Energy:      -152.499788  Gnorm:      0.649113  CPU:    0.390
  Cycle:     14 Energy:      -152.976583  Gnorm:      0.381352  CPU:    0.418
  ** Hessian calculated **
  Cycle:     15 Energy:      -153.390615  Gnorm:      0.258005  CPU:    0.506
  Cycle:     16 Energy:      -153.468176  Gnorm:      0.198173  CPU:    0.543
  ** Hessian calculated **
  Cycle:     17 Energy:      -153.518764  Gnorm:      0.166733  CPU:    0.629
  Cycle:     18 Energy:      -153.566299  Gnorm:      0.146963  CPU:    0.678
  Cycle:     19 Energy:      -153.592143  Gnorm:      0.114541  CPU:    0.714
  Cycle:     20 Energy:      -153.611820  Gnorm:      0.100344  CPU:    0.759
  Cycle:     21 Energy:      -153.627533  Gnorm:      0.075316  CPU:    0.807
  Cycle:     22 Energy:      -153.641500  Gnorm:      0.079998  CPU:    0.851
  Cycle:     23 Energy:      -153.649737  Gnorm:      0.057083  CPU:    0.890
  Cycle:     24 Energy:      -153.658050  Gnorm:      0.058373  CPU:    0.939
  Cycle:     25 Energy:      -153.663885  Gnorm:      0.039452  CPU:    0.983
  Cycle:     26 Energy:      -153.666340  Gnorm:      0.032336  CPU:    1.020
  ** Hessian calculated **
  Cycle:     27 Energy:      -153.667459  Gnorm:      0.023245  CPU:    1.098
  Cycle:     28 Energy:      -153.668581  Gnorm:      0.022433  CPU:    1.143
  Cycle:     29 Energy:      -153.669521  Gnorm:      0.024442  CPU:    1.191
  Cycle:     30 Energy:      -153.670521  Gnorm:      0.030131  CPU:    1.236
  Cycle:     31 Energy:      -153.671987  Gnorm:      0.026256  CPU:    1.280
  Cycle:     32 Energy:      -153.673712  Gnorm:      0.024991  CPU:    1.329
  Cycle:     33 Energy:      -153.674791  Gnorm:      0.022181  CPU:    1.365
  Cycle:     34 Energy:      -153.675747  Gnorm:      0.025601  CPU:    1.410
  Cycle:     35 Energy:      -153.677120  Gnorm:      0.019143  CPU:    1.458
  Cycle:     36 Energy:      -153.677525  Gnorm:      0.012481  CPU:    1.502
  ** Hessian calculated **
  Cycle:     37 Energy:      -153.678300  Gnorm:      0.001509  CPU:    1.590
  ** Hessian calculated **
  Cycle:     38 Energy:      -153.678302  Gnorm:      0.000848  CPU:    1.665
  Cycle:     39 Energy:      -153.678303  Gnorm:      0.000694  CPU:    1.701


  **** Optimisation achieved ****


  Final energy =    -153.67830324 eV      
  Final Gnorm  =       0.00051720

  Components of energy : 

--------------------------------------------------------------------------------
  Interatomic potentials     =          12.93042595 eV    
  Monopole - monopole (real) =         -68.64793722 eV    
  Monopole - monopole (recip)=         -97.96079197 eV    
  Monopole - monopole (total)=        -166.60872919 eV    
--------------------------------------------------------------------------------
  Total lattice energy       =        -153.67830324 eV    
--------------------------------------------------------------------------------
  Total lattice energy       =          -14827.6071 kJ/(mole unit cells)
--------------------------------------------------------------------------------

  Final fractional coordinates of atoms :

--------------------------------------------------------------------------------
   No.  Atomic        x           y          z          Radius
        Label       (Frac)      (Frac)     (Frac)       (Angs) 
--------------------------------------------------------------------------------
     1  Ti    c     0.472148    0.515748    0.865422    0.000000
     2  Ti    c     0.013257    0.438713    0.406544    0.000000
     3  Ti    c     0.864136    0.897256    0.257336    0.000000
     4  Ti    c     0.280655    0.001183    0.673838    0.000000
     5  O     c     0.290577    0.459816    0.176385    0.000000
     6  O     c     0.783128    0.459773    0.683891    0.000000
     7  O     c     0.331596    0.277756    0.724848    0.000000
     8  O     c     0.976575    0.150372    0.369796    0.000000
     9  O     c     0.594535    0.927059    0.503832    0.000000
    10  O     c     0.110633    0.927059    0.987746    0.000000
    11  O     c     0.173307    0.719268    0.566546    0.000000
    12  O     c     0.728123    0.660156    0.121384    0.000000
--------------------------------------------------------------------------------

  Final Cartesian lattice vectors (Angstroms) :

        4.679029    0.809691   -0.407899
       -0.011720    6.450039    0.349086
       -0.372273    0.523067    4.722392


  Final cell parameters and derivatives :

--------------------------------------------------------------------------------
       a            4.766056 Angstrom     dE/de1(xx)     0.003249 eV/strain
       b            6.459489 Angstrom     dE/de2(yy)     0.002504 eV/strain
       c            4.765834 Angstrom     dE/de3(zz)     0.003424 eV/strain
       alpha       80.602407 Degrees      dE/de4(yz)    -0.000575 eV/strain
       beta        98.212500 Degrees      dE/de5(xz)     0.002712 eV/strain
       gamma       80.605450 Degrees      dE/de6(xy)    -0.001008 eV/strain
--------------------------------------------------------------------------------

  Primitive cell volume =           140.629698 Angs**3

  Density of cell =      3.772915 g/cm**3

  Non-primitive cell volume =           140.629698 Angs**3


  Final internal derivatives :

--------------------------------------------------------------------------------
   No.  Atomic          a             b             c           Radius
        Label          (eV)          (eV)          (eV)        (eV/Angs)
--------------------------------------------------------------------------------
      1 Ti    c       0.000000      0.000000      0.000000      0.000000
      2 Ti    c      -0.001787     -0.002508      0.001735      0.000000
      3 Ti    c       0.003772     -0.005077     -0.000377      0.000000
      4 Ti    c       0.003950      0.007617     -0.008360      0.000000
      5 O     c      -0.002267      0.002408      0.001514      0.000000
      6 O     c       0.002512     -0.001336     -0.002569      0.000000
      7 O     c      -0.000457      0.000142     -0.002512      0.000000
      8 O     c       0.002564      0.001585      0.002102      0.000000
      9 O     c      -0.002962      0.001795      0.001935      0.000000
     10 O     c      -0.002458     -0.000044      0.002693      0.000000
     11 O     c      -0.004999      0.004229     -0.004740      0.000000
     12 O     c       0.001448      0.004874      0.002294      0.000000
--------------------------------------------------------------------------------
  Maximum abs         0.004999      0.007617      0.008360      0.000000
--------------------------------------------------------------------------------


  Time to end of optimisation =       1.7377 seconds


  Peak dynamic memory used =       1.84 MB 


  Timing analysis for GULP :

--------------------------------------------------------------------------------
  Task / Subroutine                                          Time (Seconds)
--------------------------------------------------------------------------------
  Calculation of reciprocal space energy and derivatives          0.0613
  Calculation of real space energy and derivatives                1.6578
  Calculation and manipulation of Hessian matrix                  0.0005
  Calculation of matrix inversion                                 0.0010
  Global summation overhead                                       0.0003
--------------------------------------------------------------------------------
  Total CPU time                                                  1.7377
--------------------------------------------------------------------------------


  Job Finished at 11:20.31 29th May        2024                               

