********************************************************************************
*                       GENERAL UTILITY LATTICE PROGRAM                        *
*                                 Julian Gale                                  *
*                       Curtin Institute for Computation                       *
*                    School of Molecular and Life Sciences                     *
*                    Curtin University, Western Australia                      *
********************************************************************************
* Version = 6.0.0 * Last modified =  12th July 2021                            *
********************************************************************************
*  optimise     - perform optimisation run                                     *
*  conp         - constant pressure calculation                                *
*  conjugate    - use conjugate gradients minimiser                            *
********************************************************************************

  Job Started  at 11:19.49 29th May        2024                               

  Number of CPUs =     1


  Total number of configurations input =      1

********************************************************************************
*  Input for Configuration =   1                                               *
********************************************************************************

  Formula = Ti4O8                                                       

  Number of irreducible atoms/shells =      12


  Total number atoms/shells =      12

  Dimensionality = 3               :  Bulk   



  Cartesian lattice vectors (Angstroms) :

        4.175872    0.729677   -1.811624
       -0.148501    6.250297   -0.629505
        0.027953   -0.326801    5.138280

  Cell parameters (Angstroms/Degrees):

  a =       4.6100    alpha =  99.3951
  b =       6.2837    beta  = 113.4098
  c =       5.1487    gamma =  79.8980

  Initial cell volume =         134.024851 Angs**3

  Temperature of configuration =   0.00     K 

  Pressure of configuration =         0.000 GPa 

  Fractional coordinates of asymmetric unit :

--------------------------------------------------------------------------------
   No.  Atomic       x           y          z         Charge      Occupancy
        Label      (Frac)      (Frac)     (Frac)        (e)         (Frac)  
--------------------------------------------------------------------------------
      1 Ti    c    0.734932    0.312519    0.353243     2.19600    1.000000    
      2 Ti    c    0.480488 *  0.185306 *  0.607686 *   2.19600    1.000000    
      3 Ti    c    0.392676 *  0.568802 *  0.891944 *   2.19600    1.000000    
      4 Ti    c    0.123809 *  0.011663 *  0.200434 *   2.19600    1.000000    
      5 O     c    0.946683 *  0.206651 *  0.141501 *  -1.09800    1.000000    
      6 O     c    0.268744 *  0.291172 *  0.819445 *  -1.09800    1.000000    
      7 O     c    0.523191 *  0.418401 *  0.565011 *  -1.09800    1.000000    
      8 O     c    0.692226 *  0.079424 *  0.395928 *  -1.09800    1.000000    
      9 O     c    0.698172 *  0.788162 *  0.038464 *  -1.09800    1.000000    
     10 O     c    0.123804 *  0.788154 *  0.727649 *  -1.09800    1.000000    
     11 O     c    0.698171 *  0.011655 *  0.529028 *  -1.09800    1.000000    
     12 O     c    0.919873 *  0.740451 *  0.364733 *  -1.09800    1.000000    
--------------------------------------------------------------------------------



********************************************************************************
*  General input information                                                   *
********************************************************************************

  Species output for all configurations : 

--------------------------------------------------------------------------------
  Species    Type    Atomic    Atomic    Charge       Radii (Angs)     Library
                     Number     Mass       (e)     Cova   Ionic  VDW   Symbol
--------------------------------------------------------------------------------
    Ti       Core       22      47.88   2.196000   1.470  0.000  2.190          
    O        Core        8      16.00  -1.098000   0.730  0.000  1.360          
--------------------------------------------------------------------------------


  Lattice summation method               =    Ewald          (3-D)
                                         =    Parry          (2-D)
                                         =    Saunders et al (1-D)
  Accuracy factor for lattice sums       =   12.000


  Analytic derivatives to be used

  Time limit = Infinity

  Maximum range for interatomic potentials =    100000.000000 Angstroms

  General interatomic potentials :

--------------------------------------------------------------------------------
Atom  Types   Potential      Parameter       Value         Units   Cutoffs(Ang)
  1     2                                                            Min /  Max 
--------------------------------------------------------------------------------
Ti   c Ti   c Buckingham    Buckingham A     31120.100    eV        0.000 15.000
                            Buckingham rho  0.15400000    Ang       
                            Buckingham C     5.2500000    eV*Ang^6  
--------------------------------------------------------------------------------
O    c O    c Buckingham    Buckingham A     11782.700    eV        0.000 15.000
                            Buckingham rho  0.23400000    Ang       
                            Buckingham C     30.220000    eV*Ang^6  
--------------------------------------------------------------------------------
O    c Ti   c Buckingham    Buckingham A     16957.500    eV        0.000 15.000
                            Buckingham rho  0.19400000    Ang       
                            Buckingham C     12.590000    eV*Ang^6  
--------------------------------------------------------------------------------
Ti   c Ti   c Lennard       Lennard-Jones A  1.0000000    eV*Ang^m  0.000 15.000
                            Lennard-Jones B  0.0000000    eV*Ang^n  
                            Exponent m        12          None
                            Exponent n         6          None
--------------------------------------------------------------------------------
O    c O    c Lennard       Lennard-Jones A  1.0000000    eV*Ang^m  0.000 15.000
                            Lennard-Jones B  0.0000000    eV*Ang^n  
                            Exponent m        12          None
                            Exponent n         6          None
--------------------------------------------------------------------------------
O    c Ti   c Lennard       Lennard-Jones A  1.0000000    eV*Ang^m  0.000 15.000
                            Lennard-Jones B  0.0000000    eV*Ang^n  
                            Exponent m        12          None
                            Exponent n         6          None
--------------------------------------------------------------------------------

********************************************************************************
*  Output for configuration   1                                                *
********************************************************************************


  Components of energy : 

--------------------------------------------------------------------------------
  Interatomic potentials     =         294.82924870 eV    
  Monopole - monopole (real) =         -46.90008459 eV    
  Monopole - monopole (recip)=         -94.20607201 eV    
  Monopole - monopole (total)=        -141.10615660 eV    
--------------------------------------------------------------------------------
  Total lattice energy       =         153.72309210 eV    
--------------------------------------------------------------------------------
  Total lattice energy       =           14831.9285 kJ/(mole unit cells)
--------------------------------------------------------------------------------


  Number of variables =       39

  Maximum number of calculations  =          1000
  Maximum Hessian update interval =            10
  Maximum step size               =   1.000000000
  Maximum parameter tolerance     =   0.000010000
  Maximum function  tolerance     =   0.000010000
  Maximum gradient  tolerance     =   0.001000000
  Maximum gradient  component     =   0.010000000

  Symmetry not applied to optimisation

  Cell parameters to be optimised using strains

  Conjugate gradient optimiser to be used

  Lower half triangular hessian to be used

  Minimiser to switch to BFGS with exact hessian
  When gradient norm is less than     0.500000

  Start of bulk optimisation :

  Cycle:      0 Energy:       153.723092  Gnorm:    198.244873  CPU:    0.029
  Cycle:      1 Energy:       -71.343211  Gnorm:     21.837294  CPU:    0.086
  Cycle:      2 Energy:      -105.948740  Gnorm:     12.872532  CPU:    0.154
  Cycle:      3 Energy:      -122.635657  Gnorm:      3.574370  CPU:    0.190
  Cycle:      4 Energy:      -129.069367  Gnorm:      5.335837  CPU:    0.247
  Cycle:      5 Energy:      -136.106708  Gnorm:      3.445312  CPU:    0.291
  Cycle:      6 Energy:      -138.907252  Gnorm:      1.492833  CPU:    0.326
  Cycle:      7 Energy:      -142.029008  Gnorm:      1.828813  CPU:    0.372
  Cycle:      8 Energy:      -144.547295  Gnorm:      1.589389  CPU:    0.406
  Cycle:      9 Energy:      -146.938835  Gnorm:      1.346520  CPU:    0.450
  Cycle:     10 Energy:      -148.561017  Gnorm:      1.310261  CPU:    0.496
  Cycle:     11 Energy:      -150.252219  Gnorm:      1.099093  CPU:    0.541
  Cycle:     12 Energy:      -151.042937  Gnorm:      1.033303  CPU:    0.586
  Cycle:     13 Energy:      -151.791147  Gnorm:      0.698766  CPU:    0.635
  Cycle:     14 Energy:      -152.204442  Gnorm:      0.529133  CPU:    0.681
  Cycle:     15 Energy:      -152.425257  Gnorm:      0.385391  CPU:    0.728
  ** Hessian calculated **
  Cycle:     16 Energy:      -152.519556  Gnorm:      0.201625  CPU:    0.823
  ** Hessian calculated **
  Cycle:     17 Energy:      -152.571250  Gnorm:      0.179840  CPU:    0.902
  Cycle:     18 Energy:      -152.622283  Gnorm:      0.200819  CPU:    0.949
  Cycle:     19 Energy:      -152.794598  Gnorm:      0.500060  CPU:    1.003
  Cycle:     20 Energy:      -153.013994  Gnorm:      0.609390  CPU:    1.040
  Cycle:     21 Energy:      -153.465645  Gnorm:      0.455036  CPU:    1.080
  Cycle:     22 Energy:      -153.821887  Gnorm:      0.524192  CPU:    1.125
  Cycle:     23 Energy:      -154.357100  Gnorm:      0.511118  CPU:    1.173
  Cycle:     24 Energy:      -154.765332  Gnorm:      0.532908  CPU:    1.218
  Cycle:     25 Energy:      -155.145022  Gnorm:      0.618426  CPU:    1.254
  Cycle:     26 Energy:      -155.404671  Gnorm:      0.461837  CPU:    1.278
  ** Hessian calculated **
  Cycle:     27 Energy:      -155.963229  Gnorm:      0.389454  CPU:    1.342
  ** Hessian calculated **
  Cycle:     28 Energy:      -156.232568  Gnorm:      0.300977  CPU:    1.417
  Cycle:     29 Energy:      -156.327572  Gnorm:      0.291274  CPU:    1.441
  Cycle:     30 Energy:      -156.424624  Gnorm:      0.157220  CPU:    1.465
  Cycle:     31 Energy:      -156.447728  Gnorm:      0.188900  CPU:    1.488
  ** Hessian calculated **
  Cycle:     32 Energy:      -156.523229  Gnorm:      0.143737  CPU:    1.555
  Cycle:     33 Energy:      -156.587653  Gnorm:      0.089411  CPU:    1.594
  Cycle:     34 Energy:      -156.603809  Gnorm:      0.056644  CPU:    1.630
  Cycle:     35 Energy:      -156.632542  Gnorm:      0.074635  CPU:    1.674
  Cycle:     36 Energy:      -156.686711  Gnorm:      0.274076  CPU:    1.708
  Cycle:     37 Energy:      -156.701480  Gnorm:      0.299517  CPU:    1.744
  Cycle:     38 Energy:      -156.828037  Gnorm:      0.208895  CPU:    1.780
  Cycle:     39 Energy:      -156.896661  Gnorm:      0.195709  CPU:    1.810
  Cycle:     40 Energy:      -156.930036  Gnorm:      0.104017  CPU:    1.844
  Cycle:     41 Energy:      -156.956311  Gnorm:      0.156182  CPU:    1.882
  ** Hessian calculated **
  Cycle:     42 Energy:      -156.973641  Gnorm:      0.070869  CPU:    1.957
  Cycle:     43 Energy:      -156.982356  Gnorm:      0.060750  CPU:    1.995
  Cycle:     44 Energy:      -156.992844  Gnorm:      0.069975  CPU:    2.033
  Cycle:     45 Energy:      -157.021883  Gnorm:      0.159948  CPU:    2.081
  Cycle:     46 Energy:      -157.103346  Gnorm:      0.250644  CPU:    2.126
  Cycle:     47 Energy:      -157.201678  Gnorm:      0.398852  CPU:    2.163
  ** Hessian calculated **
  Cycle:     48 Energy:      -157.478252  Gnorm:      0.270655  CPU:    2.235
  Cycle:     49 Energy:      -157.676283  Gnorm:      0.321757  CPU:    2.267
  Cycle:     50 Energy:      -157.820736  Gnorm:      0.355135  CPU:    2.297
  Cycle:     51 Energy:      -158.033053  Gnorm:      0.247232  CPU:    2.322
  Cycle:     52 Energy:      -158.329672  Gnorm:      0.340261  CPU:    2.352
  Cycle:     53 Energy:      -158.517042  Gnorm:      0.268076  CPU:    2.374
  Cycle:     54 Energy:      -158.676666  Gnorm:      0.235269  CPU:    2.405
  Cycle:     55 Energy:      -158.778646  Gnorm:      0.182829  CPU:    2.427
  Cycle:     56 Energy:      -158.840539  Gnorm:      0.158580  CPU:    2.449
  Cycle:     57 Energy:      -158.892163  Gnorm:      0.177402  CPU:    2.476
  ** Hessian calculated **
  Cycle:     58 Energy:      -159.055480  Gnorm:      0.039384  CPU:    2.547
  Cycle:     59 Energy:      -159.060388  Gnorm:      0.010763  CPU:    2.569
  Cycle:     60 Energy:      -159.060904  Gnorm:      0.001561  CPU:    2.596
  Cycle:     61 Energy:      -159.060907  Gnorm:      0.001025  CPU:    2.618


  **** Optimisation achieved ****


  Final energy =    -159.06090980 eV      
  Final Gnorm  =       0.00007059

  Components of energy : 

--------------------------------------------------------------------------------
  Interatomic potentials     =          12.29004530 eV    
  Monopole - monopole (real) =         -67.80775167 eV    
  Monopole - monopole (recip)=        -103.54320343 eV    
  Monopole - monopole (total)=        -171.35095510 eV    
--------------------------------------------------------------------------------
  Total lattice energy       =        -159.06090980 eV    
--------------------------------------------------------------------------------
  Total lattice energy       =          -15346.9463 kJ/(mole unit cells)
--------------------------------------------------------------------------------

  Final fractional coordinates of atoms :

--------------------------------------------------------------------------------
   No.  Atomic        x           y          z          Radius
        Label       (Frac)      (Frac)     (Frac)       (Angs) 
--------------------------------------------------------------------------------
     1  Ti    c     0.734932    0.312519    0.353243    0.000000
     2  Ti    c     0.734926    0.987471    0.853241    0.000000
     3  Ti    c     0.234928    0.487472    0.853243    0.000000
     4  Ti    c     0.234928    0.812521    0.353241    0.000000
     5  O     c     0.960894    0.263896    0.020691    0.000000
     6  O     c     0.508961    0.036096    0.185789    0.000000
     7  O     c     0.508959    0.263896    0.685788    0.000000
     8  O     c     0.960894    0.036099    0.520691    0.000000
     9  O     c     0.460893    0.536095    0.185791    0.000000
    10  O     c     0.008960    0.763895    0.020694    0.000000
    11  O     c     0.460894    0.763896    0.685791    0.000000
    12  O     c     0.008958    0.536100    0.520694    0.000000
--------------------------------------------------------------------------------

  Final Cartesian lattice vectors (Angstroms) :

        4.457282    0.236273   -0.726081
       -0.318359    5.365751   -0.208497
        0.780474    0.235452    4.867863


  Final cell parameters and derivatives :

--------------------------------------------------------------------------------
       a            4.522209 Angstrom     dE/de1(xx)    -0.000127 eV/strain
       b            5.379230 Angstrom     dE/de2(yy)    -0.000433 eV/strain
       c            4.935653 Angstrom     dE/de3(zz)    -0.000344 eV/strain
       alpha       90.000065 Degrees      dE/de4(yz)    -0.000279 eV/strain
       beta        90.000098 Degrees      dE/de5(xz)    -0.000326 eV/strain
       gamma       89.999639 Degrees      dE/de6(xy)     0.000549 eV/strain
--------------------------------------------------------------------------------

  Primitive cell volume =           120.064702 Angs**3

  Density of cell =      4.419150 g/cm**3

  Non-primitive cell volume =           120.064702 Angs**3


  Final internal derivatives :

--------------------------------------------------------------------------------
   No.  Atomic          a             b             c           Radius
        Label          (eV)          (eV)          (eV)        (eV/Angs)
--------------------------------------------------------------------------------
      1 Ti    c       0.000000      0.000000      0.000000      0.000000
      2 Ti    c      -0.000293     -0.000462      0.000514      0.000000
      3 Ti    c       0.000272      0.000353      0.000663      0.000000
      4 Ti    c      -0.000025     -0.000125     -0.000275      0.000000
      5 O     c      -0.000379      0.000116     -0.000300      0.000000
      6 O     c       0.000501      0.000163     -0.000162      0.000000
      7 O     c       0.000311      0.000021     -0.000177      0.000000
      8 O     c      -0.001023      0.001183     -0.000891      0.000000
      9 O     c      -0.000946      0.000209     -0.000309      0.000000
     10 O     c       0.000294     -0.000413      0.000038      0.000000
     11 O     c      -0.000103      0.000135      0.000142      0.000000
     12 O     c      -0.000302      0.000219     -0.000274      0.000000
--------------------------------------------------------------------------------
  Maximum abs         0.001023      0.001183      0.000891      0.000000
--------------------------------------------------------------------------------


  Time to end of optimisation =       2.6412 seconds


  Peak dynamic memory used =       1.84 MB 


  Timing analysis for GULP :

--------------------------------------------------------------------------------
  Task / Subroutine                                          Time (Seconds)
--------------------------------------------------------------------------------
  Calculation of reciprocal space energy and derivatives          0.0970
  Calculation of real space energy and derivatives                2.5200
  Calculation and manipulation of Hessian matrix                  0.0009
  Calculation of matrix inversion                                 0.0015
  Global summation overhead                                       0.0004
--------------------------------------------------------------------------------
  Total CPU time                                                  2.6413
--------------------------------------------------------------------------------


  Job Finished at 11:19.52 29th May        2024                               

