********************************************************************************
*                       GENERAL UTILITY LATTICE PROGRAM                        *
*                                 Julian Gale                                  *
*                       Curtin Institute for Computation                       *
*                    School of Molecular and Life Sciences                     *
*                    Curtin University, Western Australia                      *
********************************************************************************
* Version = 6.0.0 * Last modified =  12th July 2021                            *
********************************************************************************
*  optimise     - perform optimisation run                                     *
*  conp         - constant pressure calculation                                *
*  conjugate    - use conjugate gradients minimiser                            *
********************************************************************************

  Job Started  at 11:19.41 29th May        2024                               

  Number of CPUs =     1


  Total number of configurations input =      1

********************************************************************************
*  Input for Configuration =   1                                               *
********************************************************************************

  Formula = Ti4O8                                                       

  Number of irreducible atoms/shells =      12


  Total number atoms/shells =      12

  Dimensionality = 3               :  Bulk   



  Cartesian lattice vectors (Angstroms) :

        5.060232    0.719942   -0.255016
       -0.741544    5.040243   -0.485111
        0.182912    0.516641    5.088113

  Cell parameters (Angstroms/Degrees):

  a =       5.1175    alpha =  89.9999
  b =       5.1175    beta  =  90.0000
  c =       5.1175    gamma =  90.0000

  Initial cell volume =         134.024851 Angs**3

  Temperature of configuration =   0.00     K 

  Pressure of configuration =         0.000 GPa 

  Fractional coordinates of asymmetric unit :

--------------------------------------------------------------------------------
   No.  Atomic       x           y          z         Charge      Occupancy
        Label      (Frac)      (Frac)     (Frac)        (e)         (Frac)  
--------------------------------------------------------------------------------
      1 Ti    c    0.405598    0.448654    0.322743     2.19600    1.000000    
      2 Ti    c    0.405599 *  0.977427 *  0.851517 *   2.19600    1.000000    
      3 Ti    c    0.914933 *  0.486760 *  0.360851 *   2.19600    1.000000    
      4 Ti    c    0.596809 *  0.168639 *  0.678972 *   2.19600    1.000000    
      5 O     c    0.087475 *  0.659305 *  0.169638 *  -1.09800    1.000000    
      6 O     c    0.252493 *  0.130533 *  0.475850 *  -1.09800    1.000000    
      7 O     c    0.252495 *  0.659304 *  0.698411 *  -1.09800    1.000000    
      8 O     c    0.087478 *  0.130533 *  0.004623 *  -1.09800    1.000000    
      9 O     c    0.596811 *  0.639867 *  0.513956 *  -1.09800    1.000000    
     10 O     c    0.761826 *  0.639867 *  0.985183 *  -1.09800    1.000000    
     11 O     c    0.914932 *  0.957988 *  0.832077 *  -1.09800    1.000000    
     12 O     c    0.761829 *  0.168638 *  0.207744 *  -1.09800    1.000000    
--------------------------------------------------------------------------------



********************************************************************************
*  General input information                                                   *
********************************************************************************

  Species output for all configurations : 

--------------------------------------------------------------------------------
  Species    Type    Atomic    Atomic    Charge       Radii (Angs)     Library
                     Number     Mass       (e)     Cova   Ionic  VDW   Symbol
--------------------------------------------------------------------------------
    Ti       Core       22      47.88   2.196000   1.470  0.000  2.190          
    O        Core        8      16.00  -1.098000   0.730  0.000  1.360          
--------------------------------------------------------------------------------


  Lattice summation method               =    Ewald          (3-D)
                                         =    Parry          (2-D)
                                         =    Saunders et al (1-D)
  Accuracy factor for lattice sums       =   12.000


  Analytic derivatives to be used

  Time limit = Infinity

  Maximum range for interatomic potentials =    100000.000000 Angstroms

  General interatomic potentials :

--------------------------------------------------------------------------------
Atom  Types   Potential      Parameter       Value         Units   Cutoffs(Ang)
  1     2                                                            Min /  Max 
--------------------------------------------------------------------------------
Ti   c Ti   c Buckingham    Buckingham A     31120.100    eV        0.000 15.000
                            Buckingham rho  0.15400000    Ang       
                            Buckingham C     5.2500000    eV*Ang^6  
--------------------------------------------------------------------------------
O    c O    c Buckingham    Buckingham A     11782.700    eV        0.000 15.000
                            Buckingham rho  0.23400000    Ang       
                            Buckingham C     30.220000    eV*Ang^6  
--------------------------------------------------------------------------------
O    c Ti   c Buckingham    Buckingham A     16957.500    eV        0.000 15.000
                            Buckingham rho  0.19400000    Ang       
                            Buckingham C     12.590000    eV*Ang^6  
--------------------------------------------------------------------------------
Ti   c Ti   c Lennard       Lennard-Jones A  1.0000000    eV*Ang^m  0.000 15.000
                            Lennard-Jones B  0.0000000    eV*Ang^n  
                            Exponent m        12          None
                            Exponent n         6          None
--------------------------------------------------------------------------------
O    c O    c Lennard       Lennard-Jones A  1.0000000    eV*Ang^m  0.000 15.000
                            Lennard-Jones B  0.0000000    eV*Ang^n  
                            Exponent m        12          None
                            Exponent n         6          None
--------------------------------------------------------------------------------
O    c Ti   c Lennard       Lennard-Jones A  1.0000000    eV*Ang^m  0.000 15.000
                            Lennard-Jones B  0.0000000    eV*Ang^n  
                            Exponent m        12          None
                            Exponent n         6          None
--------------------------------------------------------------------------------

********************************************************************************
*  Output for configuration   1                                                *
********************************************************************************


  Components of energy : 

--------------------------------------------------------------------------------
  Interatomic potentials     =          32.83375665 eV    
  Monopole - monopole (real) =         -25.24667111 eV    
  Monopole - monopole (recip)=         -92.14762045 eV    
  Monopole - monopole (total)=        -117.39429157 eV    
--------------------------------------------------------------------------------
  Total lattice energy       =         -84.56053492 eV    
--------------------------------------------------------------------------------
  Total lattice energy       =           -8158.7990 kJ/(mole unit cells)
--------------------------------------------------------------------------------


  Number of variables =       39

  Maximum number of calculations  =          1000
  Maximum Hessian update interval =            10
  Maximum step size               =   1.000000000
  Maximum parameter tolerance     =   0.000010000
  Maximum function  tolerance     =   0.000010000
  Maximum gradient  tolerance     =   0.001000000
  Maximum gradient  component     =   0.010000000

  Symmetry not applied to optimisation

  Cell parameters to be optimised using strains

  Conjugate gradient optimiser to be used

  Lower half triangular hessian to be used

  Minimiser to switch to BFGS with exact hessian
  When gradient norm is less than     0.500000

  Start of bulk optimisation :

  Cycle:      0 Energy:       -84.560535  Gnorm:     15.760506  CPU:    0.020
  Cycle:      1 Energy:      -129.262285  Gnorm:      3.874332  CPU:    0.052
  Cycle:      2 Energy:      -137.417947  Gnorm:      3.324910  CPU:    0.075
  Cycle:      3 Energy:      -143.222450  Gnorm:      1.715006  CPU:    0.097
  Cycle:      4 Energy:      -145.700556  Gnorm:      1.275951  CPU:    0.119
  Cycle:      5 Energy:      -147.377487  Gnorm:      1.435832  CPU:    0.146
  Cycle:      6 Energy:      -148.908368  Gnorm:      1.189789  CPU:    0.167
  Cycle:      7 Energy:      -149.817436  Gnorm:      1.501792  CPU:    0.189
  Cycle:      8 Energy:      -150.599845  Gnorm:      1.106659  CPU:    0.211
  Cycle:      9 Energy:      -151.118623  Gnorm:      0.528825  CPU:    0.236
  Cycle:     10 Energy:      -151.359247  Gnorm:      0.566555  CPU:    0.263
  Cycle:     11 Energy:      -152.052547  Gnorm:      0.606770  CPU:    0.290
  Cycle:     12 Energy:      -152.623089  Gnorm:      0.596563  CPU:    0.310
  Cycle:     13 Energy:      -152.837280  Gnorm:      0.559031  CPU:    0.330
  Cycle:     14 Energy:      -153.164371  Gnorm:      0.540581  CPU:    0.357
  Cycle:     15 Energy:      -153.649687  Gnorm:      0.606787  CPU:    0.383
  Cycle:     16 Energy:      -153.998636  Gnorm:      0.527643  CPU:    0.410
  Cycle:     17 Energy:      -154.502041  Gnorm:      0.566994  CPU:    0.447
  Cycle:     18 Energy:      -154.990105  Gnorm:      0.485343  CPU:    0.476
  ** Hessian calculated **
  Cycle:     19 Energy:      -155.190924  Gnorm:      0.443114  CPU:    0.559
  ** Hessian calculated **
  Cycle:     20 Energy:      -155.517349  Gnorm:      0.246941  CPU:    0.631
  Cycle:     21 Energy:      -155.592014  Gnorm:      0.245887  CPU:    0.655
  Cycle:     22 Energy:      -155.688884  Gnorm:      0.342892  CPU:    0.691
  ** Hessian calculated **
  Cycle:     23 Energy:      -156.103577  Gnorm:      0.287835  CPU:    0.769
  Cycle:     24 Energy:      -156.218627  Gnorm:      0.313463  CPU:    0.794
  Cycle:     25 Energy:      -156.341062  Gnorm:      0.257514  CPU:    0.825
  Cycle:     26 Energy:      -156.493134  Gnorm:      0.228918  CPU:    0.858
  Cycle:     27 Energy:      -156.592169  Gnorm:      0.168753  CPU:    0.883
  Cycle:     28 Energy:      -156.631527  Gnorm:      0.120995  CPU:    0.908
  Cycle:     29 Energy:      -156.661055  Gnorm:      0.105746  CPU:    0.939
  Cycle:     30 Energy:      -156.690716  Gnorm:      0.143350  CPU:    0.973
  Cycle:     31 Energy:      -156.767903  Gnorm:      0.198592  CPU:    1.010
  Cycle:     32 Energy:      -156.950648  Gnorm:      0.304591  CPU:    1.047
  ** Hessian calculated **
  Cycle:     33 Energy:      -157.153816  Gnorm:      0.232543  CPU:    1.123
  Cycle:     34 Energy:      -157.302494  Gnorm:      0.161427  CPU:    1.155
  Cycle:     35 Energy:      -157.336478  Gnorm:      0.117937  CPU:    1.184
  Cycle:     36 Energy:      -157.368315  Gnorm:      0.159149  CPU:    1.221
  Cycle:     37 Energy:      -157.370598  Gnorm:      0.167806  CPU:    1.253
  ** Hessian calculated **
  Cycle:     38 Energy:      -157.422261  Gnorm:      0.138638  CPU:    1.328
  Cycle:     39 Energy:      -157.480855  Gnorm:      0.191735  CPU:    1.360
  Cycle:     40 Energy:      -157.638634  Gnorm:      0.269152  CPU:    1.397
  Cycle:     41 Energy:      -157.758176  Gnorm:      0.346972  CPU:    1.432
  Cycle:     42 Energy:      -158.067201  Gnorm:      0.479890  CPU:    1.464
  Cycle:     43 Energy:      -158.455812  Gnorm:      0.562038  CPU:    1.490
  Cycle:     44 Energy:      -158.698355  Gnorm:      0.374182  CPU:    1.519
  Cycle:     45 Energy:      -158.918702  Gnorm:      0.229054  CPU:    1.544
  Cycle:     46 Energy:      -159.011542  Gnorm:      0.212766  CPU:    1.570
  Cycle:     47 Energy:      -159.080149  Gnorm:      0.167723  CPU:    1.596
  ** Hessian calculated **
  Cycle:     48 Energy:      -159.199841  Gnorm:      0.023249  CPU:    1.671
  Cycle:     49 Energy:      -159.201349  Gnorm:      0.004653  CPU:    1.697
  Cycle:     50 Energy:      -159.201429  Gnorm:      0.000574  CPU:    1.723


  **** Optimisation achieved ****


  Final energy =    -159.20142961 eV      
  Final Gnorm  =       0.00011103

  Components of energy : 

--------------------------------------------------------------------------------
  Interatomic potentials     =          12.37860871 eV    
  Monopole - monopole (real) =         -68.43745234 eV    
  Monopole - monopole (recip)=        -103.14258598 eV    
  Monopole - monopole (total)=        -171.58003832 eV    
--------------------------------------------------------------------------------
  Total lattice energy       =        -159.20142961 eV    
--------------------------------------------------------------------------------
  Total lattice energy       =          -15360.5043 kJ/(mole unit cells)
--------------------------------------------------------------------------------

  Final fractional coordinates of atoms :

--------------------------------------------------------------------------------
   No.  Atomic        x           y          z          Radius
        Label       (Frac)      (Frac)     (Frac)       (Angs) 
--------------------------------------------------------------------------------
     1  Ti    c     0.405598    0.448654    0.322743    0.000000
     2  Ti    c     0.405599    0.948661    0.822746    0.000000
     3  Ti    c     0.905598    0.948658    0.322747    0.000000
     4  Ti    c     0.905600    0.448659    0.822746    0.000000
     5  O     c     0.253954    0.751942    0.171102    0.000000
     6  O     c     0.557245    0.145381    0.474393    0.000000
     7  O     c     0.253956    0.645376    0.671102    0.000000
     8  O     c     0.557244    0.251940    0.974394    0.000000
     9  O     c     0.753955    0.751942    0.671103    0.000000
    10  O     c     0.753953    0.645376    0.171102    0.000000
    11  O     c     0.057245    0.145377    0.974389    0.000000
    12  O     c     0.057248    0.251943    0.474387    0.000000
--------------------------------------------------------------------------------

  Final Cartesian lattice vectors (Angstroms) :

        5.272484    0.891162    0.803320
       -0.679649    4.419270   -0.441730
        1.196314    0.706316    5.225743


  Final cell parameters and derivatives :

--------------------------------------------------------------------------------
       a            5.407271 Angstrom     dE/de1(xx)     0.001023 eV/strain
       b            4.492994 Angstrom     dE/de2(yy)     0.001984 eV/strain
       c            5.407258 Angstrom     dE/de3(zz)     0.000734 eV/strain
       alpha       90.000092 Degrees      dE/de4(yz)    -0.000246 eV/strain
       beta        67.614825 Degrees      dE/de5(xz)     0.000488 eV/strain
       gamma       90.000000 Degrees      dE/de6(xy)    -0.000150 eV/strain
--------------------------------------------------------------------------------

  Primitive cell volume =           121.469121 Angs**3

  Density of cell =      4.368056 g/cm**3

  Non-primitive cell volume =           121.469121 Angs**3


  Final internal derivatives :

--------------------------------------------------------------------------------
   No.  Atomic          a             b             c           Radius
        Label          (eV)          (eV)          (eV)        (eV/Angs)
--------------------------------------------------------------------------------
      1 Ti    c       0.000000      0.000000      0.000000      0.000000
      2 Ti    c      -0.000425      0.000730     -0.000151      0.000000
      3 Ti    c      -0.000398     -0.000515      0.000391      0.000000
      4 Ti    c       0.000358     -0.000141      0.000202      0.000000
      5 O     c      -0.000220      0.000171     -0.000109      0.000000
      6 O     c       0.000122      0.000791      0.000292      0.000000
      7 O     c      -0.000000     -0.000299      0.000356      0.000000
      8 O     c       0.000129      0.000427      0.001955      0.000000
      9 O     c      -0.000162     -0.000038     -0.000272      0.000000
     10 O     c      -0.000698     -0.000385     -0.000278      0.000000
     11 O     c       0.000508      0.000245     -0.000284      0.000000
     12 O     c       0.001998      0.001069     -0.000065      0.000000
--------------------------------------------------------------------------------
  Maximum abs         0.001998      0.001069      0.001955      0.000000
--------------------------------------------------------------------------------


  Time to end of optimisation =       1.7511 seconds


  Peak dynamic memory used =       1.84 MB 


  Timing analysis for GULP :

--------------------------------------------------------------------------------
  Task / Subroutine                                          Time (Seconds)
--------------------------------------------------------------------------------
  Calculation of reciprocal space energy and derivatives          0.0730
  Calculation of real space energy and derivatives                1.6573
  Calculation and manipulation of Hessian matrix                  0.0007
  Calculation of matrix inversion                                 0.0011
  Global summation overhead                                       0.0003
--------------------------------------------------------------------------------
  Total CPU time                                                  1.7512
--------------------------------------------------------------------------------


  Job Finished at 11:19.43 29th May        2024                               

