********************************************************************************
*                       GENERAL UTILITY LATTICE PROGRAM                        *
*                                 Julian Gale                                  *
*                       Curtin Institute for Computation                       *
*                    School of Molecular and Life Sciences                     *
*                    Curtin University, Western Australia                      *
********************************************************************************
* Version = 6.0.0 * Last modified =  12th July 2021                            *
********************************************************************************
*  optimise     - perform optimisation run                                     *
*  conp         - constant pressure calculation                                *
*  conjugate    - use conjugate gradients minimiser                            *
********************************************************************************

  Job Started  at 11:21.16 29th May        2024                               

  Number of CPUs =     1


  Total number of configurations input =      1

********************************************************************************
*  Input for Configuration =   1                                               *
********************************************************************************

  Formula = Ti4O8                                                       

  Number of irreducible atoms/shells =      12


  Total number atoms/shells =      12

  Dimensionality = 3               :  Bulk   



  Cartesian lattice vectors (Angstroms) :

        4.652726    0.540159   -0.258413
       -0.651256    5.539988   -0.146492
        0.264553    0.166282    5.110480

  Cell parameters (Angstroms/Degrees):

  a =       4.6911    alpha =  89.9995
  b =       5.5801    beta  =  89.9998
  c =       5.1200    gamma =  89.9995

  Initial cell volume =         134.024851 Angs**3

  Temperature of configuration =   0.00     K 

  Pressure of configuration =         0.000 GPa 

  Fractional coordinates of asymmetric unit :

--------------------------------------------------------------------------------
   No.  Atomic       x           y          z         Charge      Occupancy
        Label      (Frac)      (Frac)     (Frac)        (e)         (Frac)  
--------------------------------------------------------------------------------
      1 Ti    c    0.827044    0.000095    0.317596     2.19600    1.000000    
      2 Ti    c    0.345038 *  0.482095 *  0.317590 *   2.19600    1.000000    
      3 Ti    c    0.345037 *  0.168748 *  0.799590 *   2.19600    1.000000    
      4 Ti    c    0.609223 *  0.917225 *  0.638177 *   2.19600    1.000000    
      5 O     c    0.127205 *  0.435217 *  0.961016 *  -1.09800    1.000000    
      6 O     c    0.080875 *  0.697624 *  0.479018 *  -1.09800    1.000000    
      7 O     c    0.609217 *  0.697614 *  0.156160 *  -1.09800    1.000000    
      8 O     c    0.080883 *  0.917216 *  0.961019 *  -1.09800    1.000000    
      9 O     c    0.827041 *  0.650746 *  0.799596 *  -1.09800    1.000000    
     10 O     c    0.127207 *  0.215625 *  0.479017 *  -1.09800    1.000000    
     11 O     c    0.562871 *  0.435225 *  0.638159 *  -1.09800    1.000000    
     12 O     c    0.562867 *  0.215617 *  0.156170 *  -1.09800    1.000000    
--------------------------------------------------------------------------------



********************************************************************************
*  General input information                                                   *
********************************************************************************

  Species output for all configurations : 

--------------------------------------------------------------------------------
  Species    Type    Atomic    Atomic    Charge       Radii (Angs)     Library
                     Number     Mass       (e)     Cova   Ionic  VDW   Symbol
--------------------------------------------------------------------------------
    Ti       Core       22      47.88   2.196000   1.470  0.000  2.190          
    O        Core        8      16.00  -1.098000   0.730  0.000  1.360          
--------------------------------------------------------------------------------


  Lattice summation method               =    Ewald          (3-D)
                                         =    Parry          (2-D)
                                         =    Saunders et al (1-D)
  Accuracy factor for lattice sums       =   12.000


  Analytic derivatives to be used

  Time limit = Infinity

  Maximum range for interatomic potentials =    100000.000000 Angstroms

  General interatomic potentials :

--------------------------------------------------------------------------------
Atom  Types   Potential      Parameter       Value         Units   Cutoffs(Ang)
  1     2                                                            Min /  Max 
--------------------------------------------------------------------------------
Ti   c Ti   c Buckingham    Buckingham A     31120.100    eV        0.000 15.000
                            Buckingham rho  0.15400000    Ang       
                            Buckingham C     5.2500000    eV*Ang^6  
--------------------------------------------------------------------------------
O    c O    c Buckingham    Buckingham A     11782.700    eV        0.000 15.000
                            Buckingham rho  0.23400000    Ang       
                            Buckingham C     30.220000    eV*Ang^6  
--------------------------------------------------------------------------------
O    c Ti   c Buckingham    Buckingham A     16957.500    eV        0.000 15.000
                            Buckingham rho  0.19400000    Ang       
                            Buckingham C     12.590000    eV*Ang^6  
--------------------------------------------------------------------------------
Ti   c Ti   c Lennard       Lennard-Jones A  1.0000000    eV*Ang^m  0.000 15.000
                            Lennard-Jones B  0.0000000    eV*Ang^n  
                            Exponent m        12          None
                            Exponent n         6          None
--------------------------------------------------------------------------------
O    c O    c Lennard       Lennard-Jones A  1.0000000    eV*Ang^m  0.000 15.000
                            Lennard-Jones B  0.0000000    eV*Ang^n  
                            Exponent m        12          None
                            Exponent n         6          None
--------------------------------------------------------------------------------
O    c Ti   c Lennard       Lennard-Jones A  1.0000000    eV*Ang^m  0.000 15.000
                            Lennard-Jones B  0.0000000    eV*Ang^n  
                            Exponent m        12          None
                            Exponent n         6          None
--------------------------------------------------------------------------------

********************************************************************************
*  Output for configuration   1                                                *
********************************************************************************


  Components of energy : 

--------------------------------------------------------------------------------
  Interatomic potentials     =          13.39596332 eV    
  Monopole - monopole (real) =         -33.72580017 eV    
  Monopole - monopole (recip)=         -91.64109944 eV    
  Monopole - monopole (total)=        -125.36689961 eV    
--------------------------------------------------------------------------------
  Total lattice energy       =        -111.97093629 eV    
--------------------------------------------------------------------------------
  Total lattice energy       =          -10803.4837 kJ/(mole unit cells)
--------------------------------------------------------------------------------


  Number of variables =       39

  Maximum number of calculations  =          1000
  Maximum Hessian update interval =            10
  Maximum step size               =   1.000000000
  Maximum parameter tolerance     =   0.000010000
  Maximum function  tolerance     =   0.000010000
  Maximum gradient  tolerance     =   0.001000000
  Maximum gradient  component     =   0.010000000

  Symmetry not applied to optimisation

  Cell parameters to be optimised using strains

  Conjugate gradient optimiser to be used

  Lower half triangular hessian to be used

  Minimiser to switch to BFGS with exact hessian
  When gradient norm is less than     0.500000

  Start of bulk optimisation :

  Cycle:      0 Energy:      -111.970936  Gnorm:      6.418283  CPU:    0.020
  Cycle:      1 Energy:      -130.091936  Gnorm:      3.260384  CPU:    0.041
  Cycle:      2 Energy:      -136.525143  Gnorm:      1.975146  CPU:    0.065
  Cycle:      3 Energy:      -139.417108  Gnorm:      1.827128  CPU:    0.088
  Cycle:      4 Energy:      -141.581731  Gnorm:      1.631350  CPU:    0.111
  Cycle:      5 Energy:      -143.897082  Gnorm:      1.259410  CPU:    0.133
  Cycle:      6 Energy:      -145.274586  Gnorm:      1.134761  CPU:    0.159
  Cycle:      7 Energy:      -146.034692  Gnorm:      1.190327  CPU:    0.177
  Cycle:      8 Energy:      -147.605584  Gnorm:      1.140860  CPU:    0.202
  Cycle:      9 Energy:      -148.762972  Gnorm:      1.140740  CPU:    0.225
  Cycle:     10 Energy:      -149.845115  Gnorm:      0.769505  CPU:    0.253
  Cycle:     11 Energy:      -150.480565  Gnorm:      0.674838  CPU:    0.284
  Cycle:     12 Energy:      -150.770544  Gnorm:      0.575772  CPU:    0.306
  Cycle:     13 Energy:      -151.173065  Gnorm:      0.541411  CPU:    0.335
  Cycle:     14 Energy:      -151.624974  Gnorm:      0.653182  CPU:    0.363
  Cycle:     15 Energy:      -152.139083  Gnorm:      0.594466  CPU:    0.389
  Cycle:     16 Energy:      -152.572019  Gnorm:      0.801724  CPU:    0.417
  Cycle:     17 Energy:      -153.144466  Gnorm:      0.695837  CPU:    0.441
  Cycle:     18 Energy:      -153.620541  Gnorm:      0.576572  CPU:    0.469
  Cycle:     19 Energy:      -153.895689  Gnorm:      0.504204  CPU:    0.496
  Cycle:     20 Energy:      -154.090852  Gnorm:      0.439410  CPU:    0.524
  ** Hessian calculated **
  Cycle:     21 Energy:      -154.356659  Gnorm:      0.322331  CPU:    0.596
  Cycle:     22 Energy:      -154.619905  Gnorm:      0.211324  CPU:    0.626
  ** Hessian calculated **
  Cycle:     23 Energy:      -154.680090  Gnorm:      0.140093  CPU:    0.688
  Cycle:     24 Energy:      -154.729816  Gnorm:      0.133571  CPU:    0.712
  Cycle:     25 Energy:      -154.784146  Gnorm:      0.143675  CPU:    0.739
  Cycle:     26 Energy:      -154.851775  Gnorm:      0.198221  CPU:    0.768
  Cycle:     27 Energy:      -154.921642  Gnorm:      0.159842  CPU:    0.794
  Cycle:     28 Energy:      -154.957319  Gnorm:      0.146578  CPU:    0.820
  Cycle:     29 Energy:      -154.983970  Gnorm:      0.116465  CPU:    0.841
  Cycle:     30 Energy:      -155.331652  Gnorm:      0.821668  CPU:    0.885
  Cycle:     31 Energy:      -155.463909  Gnorm:      1.216815  CPU:    0.910
  ** Hessian calculated **
  Cycle:     32 Energy:      -155.975077  Gnorm:      1.061942  CPU:    0.985
  ** Hessian calculated **
  Cycle:     33 Energy:      -157.060001  Gnorm:      0.536421  CPU:    1.046
  Cycle:     34 Energy:      -157.907982  Gnorm:      0.621290  CPU:    1.073
  Cycle:     35 Energy:      -158.404638  Gnorm:      0.456551  CPU:    1.096
  Cycle:     36 Energy:      -158.782669  Gnorm:      0.233852  CPU:    1.118
  Cycle:     37 Energy:      -158.867369  Gnorm:      0.158033  CPU:    1.144
  Cycle:     38 Energy:      -158.913266  Gnorm:      0.142411  CPU:    1.166
  Cycle:     39 Energy:      -158.956193  Gnorm:      0.138210  CPU:    1.193
  Cycle:     40 Energy:      -159.004158  Gnorm:      0.130672  CPU:    1.220
  Cycle:     41 Energy:      -159.037132  Gnorm:      0.085357  CPU:    1.242
  Cycle:     42 Energy:      -159.051514  Gnorm:      0.062306  CPU:    1.268
  ** Hessian calculated **
  Cycle:     43 Energy:      -159.060902  Gnorm:      0.001991  CPU:    1.335


  **** Optimisation achieved ****


  Final energy =    -159.06090978 eV      
  Final Gnorm  =       0.00013703

  Components of energy : 

--------------------------------------------------------------------------------
  Interatomic potentials     =          12.28969971 eV    
  Monopole - monopole (real) =         -67.80758821 eV    
  Monopole - monopole (recip)=        -103.54302128 eV    
  Monopole - monopole (total)=        -171.35060949 eV    
--------------------------------------------------------------------------------
  Total lattice energy       =        -159.06090978 eV    
--------------------------------------------------------------------------------
  Total lattice energy       =          -15346.9463 kJ/(mole unit cells)
--------------------------------------------------------------------------------

  Final fractional coordinates of atoms :

--------------------------------------------------------------------------------
   No.  Atomic        x           y          z          Radius
        Label       (Frac)      (Frac)     (Frac)       (Angs) 
--------------------------------------------------------------------------------
     1  Ti    c     0.827044    0.000095    0.317596    0.000000
     2  Ti    c     0.327046    0.500102    0.317597    0.000000
     3  Ti    c     0.327049    0.175052    0.817596    0.000000
     4  Ti    c     0.827048    0.675050    0.817597    0.000000
     5  O     c     0.101082    0.451474    0.985050    0.000000
     6  O     c     0.053015    0.723673    0.485053    0.000000
     7  O     c     0.601082    0.723680    0.150147    0.000000
     8  O     c     0.053016    0.951471    0.985051    0.000000
     9  O     c     0.601078    0.951474    0.650146    0.000000
    10  O     c     0.101080    0.223675    0.485050    0.000000
    11  O     c     0.553016    0.451475    0.650145    0.000000
    12  O     c     0.553016    0.223677    0.150144    0.000000
--------------------------------------------------------------------------------

  Final Cartesian lattice vectors (Angstroms) :

        4.480287    0.549570   -0.274565
       -0.663974    5.335876   -0.154099
        0.280047    0.177078    4.924538


  Final cell parameters and derivatives :

--------------------------------------------------------------------------------
       a            4.522210 Angstrom     dE/de1(xx)     0.000938 eV/strain
       b            5.379236 Angstrom     dE/de2(yy)     0.000510 eV/strain
       c            4.935672 Angstrom     dE/de3(zz)     0.000915 eV/strain
       alpha       89.999881 Degrees      dE/de4(yz)    -0.000203 eV/strain
       beta        90.000255 Degrees      dE/de5(xz)    -0.000558 eV/strain
       gamma       90.000103 Degrees      dE/de6(xy)     0.000020 eV/strain
--------------------------------------------------------------------------------

  Primitive cell volume =           120.065334 Angs**3

  Density of cell =      4.419126 g/cm**3

  Non-primitive cell volume =           120.065334 Angs**3


  Final internal derivatives :

--------------------------------------------------------------------------------
   No.  Atomic          a             b             c           Radius
        Label          (eV)          (eV)          (eV)        (eV/Angs)
--------------------------------------------------------------------------------
      1 Ti    c       0.000000      0.000000      0.000000      0.000000
      2 Ti    c      -0.000786      0.001398     -0.000262      0.000000
      3 Ti    c       0.000916      0.001270     -0.001155      0.000000
      4 Ti    c       0.000158     -0.000390     -0.000659      0.000000
      5 O     c       0.000632     -0.000318      0.000234      0.000000
      6 O     c       0.000244     -0.000802      0.000726      0.000000
      7 O     c       0.001388      0.002827      0.000799      0.000000
      8 O     c      -0.001080     -0.001487      0.000656      0.000000
      9 O     c      -0.000715      0.000194      0.000420      0.000000
     10 O     c       0.000615      0.000478      0.001064      0.000000
     11 O     c       0.000303      0.000059      0.000304      0.000000
     12 O     c      -0.000167     -0.000322     -0.000510      0.000000
--------------------------------------------------------------------------------
  Maximum abs         0.001388      0.002827      0.001155      0.000000
--------------------------------------------------------------------------------


  Time to end of optimisation =       1.3573 seconds


  Peak dynamic memory used =       1.84 MB 


  Timing analysis for GULP :

--------------------------------------------------------------------------------
  Task / Subroutine                                          Time (Seconds)
--------------------------------------------------------------------------------
  Calculation of reciprocal space energy and derivatives          0.0623
  Calculation of real space energy and derivatives                1.2761
  Calculation and manipulation of Hessian matrix                  0.0006
  Calculation of matrix inversion                                 0.0010
  Global summation overhead                                       0.0003
--------------------------------------------------------------------------------
  Total CPU time                                                  1.3573
--------------------------------------------------------------------------------


  Job Finished at 11:21.17 29th May        2024                               

