********************************************************************************
*                       GENERAL UTILITY LATTICE PROGRAM                        *
*                                 Julian Gale                                  *
*                       Curtin Institute for Computation                       *
*                    School of Molecular and Life Sciences                     *
*                    Curtin University, Western Australia                      *
********************************************************************************
* Version = 6.0.0 * Last modified =  12th July 2021                            *
********************************************************************************
*  optimise     - perform optimisation run                                     *
*  conp         - constant pressure calculation                                *
*  conjugate    - use conjugate gradients minimiser                            *
********************************************************************************

  Job Started  at 11:23.09 29th May        2024                               

  Number of CPUs =     1


  Total number of configurations input =      1

********************************************************************************
*  Input for Configuration =   1                                               *
********************************************************************************

  Formula = Ti4O8                                                       

  Number of irreducible atoms/shells =      12


  Total number atoms/shells =      12

  Dimensionality = 3               :  Bulk   



  Cartesian lattice vectors (Angstroms) :

        6.014098    0.774072   -2.603321
       -4.006829    7.443952   -5.027868
        2.082089   -3.708107    5.276452

  Cell parameters (Angstroms/Degrees):

  a =       6.5989    alpha = 159.5955
  b =       9.8360    beta  =  95.2407
  c =       6.7769    gamma =  94.6360

  Initial cell volume =         134.024851 Angs**3

  Temperature of configuration =   0.00     K 

  Pressure of configuration =         0.000 GPa 

  Fractional coordinates of asymmetric unit :

--------------------------------------------------------------------------------
   No.  Atomic       x           y          z         Charge      Occupancy
        Label      (Frac)      (Frac)     (Frac)        (e)         (Frac)  
--------------------------------------------------------------------------------
      1 Ti    c    0.127695    0.568999    0.599186     2.19600    1.000000    
      2 Ti    c    0.693507 *  0.097498 *  0.033372 *   2.19600    1.000000    
      3 Ti    c    0.693505 *  0.474703 *  0.033375 *   2.19600    1.000000    
      4 Ti    c    0.127693 *  0.191790 *  0.599182 *   2.19600    1.000000    
      5 O     c    0.536543 *  0.175966 *  0.190323 *  -1.09800    1.000000    
      6 O     c    0.284654 *  0.490526 *  0.442233 *  -1.09800    1.000000    
      7 O     c    0.284653 *  0.113321 *  0.442227 *  -1.09800    1.000000    
      8 O     c    0.536552 *  0.553176 *  0.190340 *  -1.09800    1.000000    
      9 O     c    0.725158 *  0.647484 *  0.001743 *  -1.09800    1.000000    
     10 O     c    0.096040 *  0.396219 *  0.630826 *  -1.09800    1.000000    
     11 O     c    0.096039 *  0.019013 *  0.630826 *  -1.09800    1.000000    
     12 O     c    0.725152 *  0.270277 *  0.001726 *  -1.09800    1.000000    
--------------------------------------------------------------------------------



********************************************************************************
*  General input information                                                   *
********************************************************************************

  Species output for all configurations : 

--------------------------------------------------------------------------------
  Species    Type    Atomic    Atomic    Charge       Radii (Angs)     Library
                     Number     Mass       (e)     Cova   Ionic  VDW   Symbol
--------------------------------------------------------------------------------
    Ti       Core       22      47.88   2.196000   1.470  0.000  2.190          
    O        Core        8      16.00  -1.098000   0.730  0.000  1.360          
--------------------------------------------------------------------------------


  Lattice summation method               =    Ewald          (3-D)
                                         =    Parry          (2-D)
                                         =    Saunders et al (1-D)
  Accuracy factor for lattice sums       =   12.000


  Analytic derivatives to be used

  Time limit = Infinity

  Maximum range for interatomic potentials =    100000.000000 Angstroms

  General interatomic potentials :

--------------------------------------------------------------------------------
Atom  Types   Potential      Parameter       Value         Units   Cutoffs(Ang)
  1     2                                                            Min /  Max 
--------------------------------------------------------------------------------
Ti   c Ti   c Buckingham    Buckingham A     31120.100    eV        0.000 15.000
                            Buckingham rho  0.15400000    Ang       
                            Buckingham C     5.2500000    eV*Ang^6  
--------------------------------------------------------------------------------
O    c O    c Buckingham    Buckingham A     11782.700    eV        0.000 15.000
                            Buckingham rho  0.23400000    Ang       
                            Buckingham C     30.220000    eV*Ang^6  
--------------------------------------------------------------------------------
O    c Ti   c Buckingham    Buckingham A     16957.500    eV        0.000 15.000
                            Buckingham rho  0.19400000    Ang       
                            Buckingham C     12.590000    eV*Ang^6  
--------------------------------------------------------------------------------
Ti   c Ti   c Lennard       Lennard-Jones A  1.0000000    eV*Ang^m  0.000 15.000
                            Lennard-Jones B  0.0000000    eV*Ang^n  
                            Exponent m        12          None
                            Exponent n         6          None
--------------------------------------------------------------------------------
O    c O    c Lennard       Lennard-Jones A  1.0000000    eV*Ang^m  0.000 15.000
                            Lennard-Jones B  0.0000000    eV*Ang^n  
                            Exponent m        12          None
                            Exponent n         6          None
--------------------------------------------------------------------------------
O    c Ti   c Lennard       Lennard-Jones A  1.0000000    eV*Ang^m  0.000 15.000
                            Lennard-Jones B  0.0000000    eV*Ang^n  
                            Exponent m        12          None
                            Exponent n         6          None
--------------------------------------------------------------------------------

********************************************************************************
*  Output for configuration   1                                                *
********************************************************************************


  Components of energy : 

--------------------------------------------------------------------------------
  Interatomic potentials     =         111.71219220 eV    
  Monopole - monopole (real) =         -72.22512512 eV    
  Monopole - monopole (recip)=         -96.47883282 eV    
  Monopole - monopole (total)=        -168.70395794 eV    
--------------------------------------------------------------------------------
  Total lattice energy       =         -56.99176574 eV    
--------------------------------------------------------------------------------
  Total lattice energy       =           -5498.8342 kJ/(mole unit cells)
--------------------------------------------------------------------------------


  Number of variables =       39

  Maximum number of calculations  =          1000
  Maximum Hessian update interval =            10
  Maximum step size               =   1.000000000
  Maximum parameter tolerance     =   0.000010000
  Maximum function  tolerance     =   0.000010000
  Maximum gradient  tolerance     =   0.001000000
  Maximum gradient  component     =   0.010000000

  Symmetry not applied to optimisation

  Cell parameters to be optimised using strains

  Conjugate gradient optimiser to be used

  Lower half triangular hessian to be used

  Minimiser to switch to BFGS with exact hessian
  When gradient norm is less than     0.500000

  Start of bulk optimisation :

  Cycle:      0 Energy:       -56.991766  Gnorm:     46.037644  CPU:    0.032
  Cycle:      1 Energy:      -113.252704  Gnorm:      6.724096  CPU:    0.076
  Cycle:      2 Energy:      -122.641786  Gnorm:      4.031570  CPU:    0.120
  Cycle:      3 Energy:      -130.764921  Gnorm:      7.578772  CPU:    0.166
  Cycle:      4 Energy:      -137.676577  Gnorm:      3.921232  CPU:    0.211
  Cycle:      5 Energy:      -140.036117  Gnorm:      2.238177  CPU:    0.257
  Cycle:      6 Energy:      -142.154340  Gnorm:      1.333248  CPU:    0.316
  Cycle:      7 Energy:      -142.807013  Gnorm:      1.812413  CPU:    0.373
  Cycle:      8 Energy:      -143.699409  Gnorm:      1.642539  CPU:    0.434
  Cycle:      9 Energy:      -144.478375  Gnorm:      1.421443  CPU:    0.480
  Cycle:     10 Energy:      -144.809733  Gnorm:      0.928195  CPU:    0.530
  Cycle:     11 Energy:      -145.176697  Gnorm:      1.128639  CPU:    0.588
  Cycle:     12 Energy:      -145.705050  Gnorm:      1.393519  CPU:    0.650
  Cycle:     13 Energy:      -146.047230  Gnorm:      1.125592  CPU:    0.697
  Cycle:     14 Energy:      -146.459287  Gnorm:      0.848278  CPU:    0.759
  Cycle:     15 Energy:      -146.867688  Gnorm:      0.824888  CPU:    0.820
  Cycle:     16 Energy:      -147.095257  Gnorm:      0.763345  CPU:    0.872
  Cycle:     17 Energy:      -147.554791  Gnorm:      1.017507  CPU:    0.934
  Cycle:     18 Energy:      -147.866349  Gnorm:      0.904846  CPU:    0.989
  Cycle:     19 Energy:      -148.087939  Gnorm:      0.691269  CPU:    1.041
  Cycle:     20 Energy:      -148.182126  Gnorm:      0.489803  CPU:    1.096
  ** Hessian calculated **
  Cycle:     21 Energy:      -148.340418  Gnorm:      0.609247  CPU:    1.189
  Cycle:     22 Energy:      -148.546536  Gnorm:      0.483350  CPU:    1.256
  Cycle:     23 Energy:      -148.720223  Gnorm:      0.557904  CPU:    1.320
  Cycle:     24 Energy:      -148.840597  Gnorm:      0.435909  CPU:    1.359
  Cycle:     25 Energy:      -148.935908  Gnorm:      0.434500  CPU:    1.403
  Cycle:     26 Energy:      -149.006111  Gnorm:      0.369948  CPU:    1.440
  Cycle:     27 Energy:      -149.077639  Gnorm:      0.399794  CPU:    1.487
  Cycle:     28 Energy:      -149.223286  Gnorm:      0.457527  CPU:    1.530
  Cycle:     29 Energy:      -149.345867  Gnorm:      0.415588  CPU:    1.566
  Cycle:     30 Energy:      -149.397355  Gnorm:      0.328151  CPU:    1.613
  ** Hessian calculated **
  Cycle:     31 Energy:      -149.424378  Gnorm:      0.201201  CPU:    1.684
  Cycle:     32 Energy:      -149.441149  Gnorm:      0.160316  CPU:    1.732
  Cycle:     33 Energy:      -149.458223  Gnorm:      0.200780  CPU:    1.776
  Cycle:     34 Energy:      -149.471253  Gnorm:      0.168201  CPU:    1.812
  Cycle:     35 Energy:      -149.496368  Gnorm:      0.215351  CPU:    1.860
  Cycle:     36 Energy:      -149.543923  Gnorm:      0.305070  CPU:    1.905
  Cycle:     37 Energy:      -149.590150  Gnorm:      0.289743  CPU:    1.952
  Cycle:     38 Energy:      -149.630853  Gnorm:      0.161367  CPU:    1.993
  Cycle:     39 Energy:      -149.650183  Gnorm:      0.123975  CPU:    2.031
  Cycle:     40 Energy:      -149.667455  Gnorm:      0.174784  CPU:    2.079
  ** Hessian calculated **
  Cycle:     41 Energy:      -149.675724  Gnorm:      0.131147  CPU:    2.159
  Cycle:     42 Energy:      -149.686444  Gnorm:      0.132202  CPU:    2.206
  Cycle:     43 Energy:      -149.698360  Gnorm:      0.157452  CPU:    2.257
  Cycle:     44 Energy:      -149.716980  Gnorm:      0.203452  CPU:    2.304
  Cycle:     45 Energy:      -149.745125  Gnorm:      0.226125  CPU:    2.350
  Cycle:     46 Energy:      -149.772838  Gnorm:      0.294415  CPU:    2.400
  Cycle:     47 Energy:      -149.856152  Gnorm:      0.519987  CPU:    2.447
  Cycle:     48 Energy:      -150.314385  Gnorm:      1.783690  CPU:    2.548
  Cycle:     49 Energy:      -150.315819  Gnorm:      1.872190  CPU:    2.630
  ** Hessian calculated **
  Cycle:     50 Energy:      -150.963608  Gnorm:      1.013962  CPU:    2.726
  Cycle:     51 Energy:      -151.248518  Gnorm:      0.903691  CPU:    2.781
  Cycle:     52 Energy:      -151.482359  Gnorm:      0.920067  CPU:    2.850
  Cycle:     53 Energy:      -151.711948  Gnorm:      1.052197  CPU:    2.923
  Cycle:     54 Energy:      -151.947277  Gnorm:      0.749165  CPU:    2.994
  Cycle:     55 Energy:      -152.099084  Gnorm:      0.610411  CPU:    3.055
  Cycle:     56 Energy:      -152.196449  Gnorm:      0.522379  CPU:    3.127
  Cycle:     57 Energy:      -152.252353  Gnorm:      0.487656  CPU:    3.189
  Cycle:     58 Energy:      -152.320892  Gnorm:      0.655547  CPU:    3.262
  Cycle:     59 Energy:      -152.420417  Gnorm:      0.588361  CPU:    3.336
  ** Hessian calculated **
  Cycle:     60 Energy:      -152.465068  Gnorm:      0.267059  CPU:    3.444
  Cycle:     61 Energy:      -152.510650  Gnorm:      0.395939  CPU:    3.519
  Cycle:     62 Energy:      -152.548907  Gnorm:      0.325656  CPU:    3.594
  Cycle:     63 Energy:      -152.582065  Gnorm:      0.265695  CPU:    3.668
  Cycle:     64 Energy:      -152.609463  Gnorm:      0.290052  CPU:    3.728
  Cycle:     65 Energy:      -152.655845  Gnorm:      0.407170  CPU:    3.803
  Cycle:     66 Energy:      -152.756027  Gnorm:      0.553153  CPU:    3.877
  Cycle:     67 Energy:      -152.875868  Gnorm:      0.646398  CPU:    3.950
  Cycle:     68 Energy:      -153.107473  Gnorm:      0.919952  CPU:    4.024
  Cycle:     69 Energy:      -153.248787  Gnorm:      0.548022  CPU:    4.084
  ** Hessian calculated **
  Cycle:     70 Energy:      -153.319933  Gnorm:      0.454461  CPU:    4.187
  Cycle:     71 Energy:      -153.365972  Gnorm:      0.302527  CPU:    4.261
  Cycle:     72 Energy:      -153.422091  Gnorm:      0.424333  CPU:    4.336
  Cycle:     73 Energy:      -153.459526  Gnorm:      0.255531  CPU:    4.396
  Cycle:     74 Energy:      -153.504641  Gnorm:      0.505012  CPU:    4.471
  Cycle:     75 Energy:      -153.548734  Gnorm:      0.344415  CPU:    4.545
  Cycle:     76 Energy:      -153.598752  Gnorm:      0.330840  CPU:    4.621
  Cycle:     77 Energy:      -153.618912  Gnorm:      0.202892  CPU:    4.682
  Cycle:     78 Energy:      -153.635682  Gnorm:      0.208177  CPU:    4.758
  Cycle:     79 Energy:      -153.664614  Gnorm:      0.477803  CPU:    4.833
  ** Hessian calculated **
  Cycle:     80 Energy:      -153.830890  Gnorm:      0.445158  CPU:    4.999
  ** Hessian calculated **
  Cycle:     81 Energy:      -154.007743  Gnorm:      0.317604  CPU:    5.152
  Cycle:     82 Energy:      -154.116472  Gnorm:      0.250105  CPU:    5.231
  ** Hessian calculated **
  Cycle:     83 Energy:      -154.240001  Gnorm:      0.121535  CPU:    5.374
  Cycle:     84 Energy:      -154.303645  Gnorm:      0.127250  CPU:    5.439
  ** Hessian calculated **
  Cycle:     85 Energy:      -154.307658  Gnorm:      0.099400  CPU:    5.551
  Cycle:     86 Energy:      -154.312375  Gnorm:      0.092053  CPU:    5.629
  Cycle:     87 Energy:      -154.320539  Gnorm:      0.239479  CPU:    5.709
  Cycle:     88 Energy:      -154.375189  Gnorm:      0.332896  CPU:    5.818
  Cycle:     89 Energy:      -154.422254  Gnorm:      0.682219  CPU:    5.896
  ** Hessian calculated **
  Cycle:     90 Energy:      -154.563266  Gnorm:      0.452990  CPU:    6.008
  Cycle:     91 Energy:      -154.690594  Gnorm:      0.665587  CPU:    6.086
  Cycle:     92 Energy:      -154.913723  Gnorm:      0.972520  CPU:    6.166
  Cycle:     93 Energy:      -155.141889  Gnorm:      1.039988  CPU:    6.247
  Cycle:     94 Energy:      -155.373687  Gnorm:      0.709868  CPU:    6.315
  Cycle:     95 Energy:      -155.513006  Gnorm:      0.469254  CPU:    6.398
  Cycle:     96 Energy:      -155.564694  Gnorm:      0.390685  CPU:    6.465
  Cycle:     97 Energy:      -155.598056  Gnorm:      0.295766  CPU:    6.532
  Cycle:     98 Energy:      -155.618384  Gnorm:      0.265909  CPU:    6.616
  Cycle:     99 Energy:      -155.634667  Gnorm:      0.322708  CPU:    6.684
  ** Hessian calculated **
  Cycle:    100 Energy:      -155.689827  Gnorm:      0.312703  CPU:    6.867
  ** Hessian calculated **
  Cycle:    101 Energy:      -155.699486  Gnorm:      0.186781  CPU:    6.986
  Cycle:    102 Energy:      -155.711103  Gnorm:      0.214958  CPU:    7.070
  Cycle:    103 Energy:      -155.720324  Gnorm:      0.279512  CPU:    7.138
  Cycle:    104 Energy:      -155.739384  Gnorm:      0.216232  CPU:    7.222
  Cycle:    105 Energy:      -155.835076  Gnorm:      0.390162  CPU:    7.322
  Cycle:    106 Energy:      -155.967377  Gnorm:      0.484484  CPU:    7.422
  Cycle:    107 Energy:      -156.107380  Gnorm:      0.703275  CPU:    7.507
  Cycle:    108 Energy:      -156.229524  Gnorm:      0.538647  CPU:    7.576
  Cycle:    109 Energy:      -156.292503  Gnorm:      0.404978  CPU:    7.645
  Cycle:    110 Energy:      -156.328688  Gnorm:      0.272079  CPU:    7.715
  ** Hessian calculated **
  Cycle:    111 Energy:      -156.480080  Gnorm:      0.221730  CPU:    7.903
  ** Hessian calculated **
  Cycle:    112 Energy:      -156.681886  Gnorm:      0.151554  CPU:    8.077
  Cycle:    113 Energy:      -156.834171  Gnorm:      0.243572  CPU:    8.164
  ** Hessian calculated **
  Cycle:    114 Energy:      -156.842344  Gnorm:      0.141874  CPU:    8.288
  Cycle:    115 Energy:      -156.845335  Gnorm:      0.093342  CPU:    8.375
  Cycle:    116 Energy:      -156.848080  Gnorm:      0.091383  CPU:    8.462
  Cycle:    117 Energy:      -156.850085  Gnorm:      0.069895  CPU:    8.549
  Cycle:    118 Energy:      -156.851191  Gnorm:      0.075907  CPU:    8.619
  Cycle:    119 Energy:      -156.853773  Gnorm:      0.109772  CPU:    8.707
  Cycle:    120 Energy:      -156.855978  Gnorm:      0.082939  CPU:    8.778
  Cycle:    121 Energy:      -156.858652  Gnorm:      0.089218  CPU:    8.866
  Cycle:    122 Energy:      -156.860976  Gnorm:      0.064287  CPU:    8.954
  Cycle:    123 Energy:      -156.862820  Gnorm:      0.092881  CPU:    9.025
  ** Hessian calculated **
  Cycle:    124 Energy:      -156.864310  Gnorm:      0.073137  CPU:    9.149
  Cycle:    125 Energy:      -156.866076  Gnorm:      0.110177  CPU:    9.219
  Cycle:    126 Energy:      -156.868208  Gnorm:      0.095452  CPU:    9.306
  Cycle:    127 Energy:      -156.871405  Gnorm:      0.117700  CPU:    9.392
  Cycle:    128 Energy:      -156.874717  Gnorm:      0.151313  CPU:    9.479
  Cycle:    129 Energy:      -156.880925  Gnorm:      0.110215  CPU:    9.565
  Cycle:    130 Energy:      -156.892887  Gnorm:      0.315121  CPU:    9.652
  Cycle:    131 Energy:      -156.945469  Gnorm:      0.344160  CPU:    9.773
  Cycle:    132 Energy:      -157.021137  Gnorm:      0.542969  CPU:    9.878
  ** Hessian calculated **
  Cycle:    133 Energy:      -157.103410  Gnorm:      0.603858  CPU:   10.002
  Cycle:    134 Energy:      -157.159796  Gnorm:      0.444259  CPU:   10.089
  Cycle:    135 Energy:      -157.208184  Gnorm:      0.450319  CPU:   10.176
  Cycle:    136 Energy:      -157.230743  Gnorm:      0.226352  CPU:   10.246
  Cycle:    137 Energy:      -157.252187  Gnorm:      0.264324  CPU:   10.333
  Cycle:    138 Energy:      -157.278190  Gnorm:      0.425762  CPU:   10.419
  Cycle:    139 Energy:      -157.302257  Gnorm:      0.187986  CPU:   10.490
  Cycle:    140 Energy:      -157.337671  Gnorm:      0.268885  CPU:   10.576
  Cycle:    141 Energy:      -157.356244  Gnorm:      0.182918  CPU:   10.646
  Cycle:    142 Energy:      -157.364174  Gnorm:      0.109983  CPU:   10.716
  ** Hessian calculated **
  Cycle:    143 Energy:      -157.390556  Gnorm:      0.082646  CPU:   10.887
  Cycle:    144 Energy:      -157.411958  Gnorm:      0.050769  CPU:   10.989
  Cycle:    145 Energy:      -157.415782  Gnorm:      0.037431  CPU:   11.075
  ** Hessian calculated **
  Cycle:    146 Energy:      -157.416638  Gnorm:      0.001319  CPU:   11.214
  ** Hessian calculated **
  Cycle:    147 Energy:      -157.416639  Gnorm:      0.002426  CPU:   11.337
  Cycle:    148 Energy:      -157.416640  Gnorm:      0.000746  CPU:   11.406
  Cycle:    149 Energy:      -157.416640  Gnorm:      0.001074  CPU:   11.477
  Cycle:    150 Energy:      -157.416640  Gnorm:      0.000848  CPU:   11.548
  Cycle:    151 Energy:      -157.416640  Gnorm:      0.001051  CPU:   11.619
  Cycle:    152 Energy:      -157.416641  Gnorm:      0.000930  CPU:   11.689
  Cycle:    153 Energy:      -157.416641  Gnorm:      0.000825  CPU:   11.760
  Cycle:    154 Energy:      -157.416641  Gnorm:      0.000897  CPU:   11.830
  Cycle:    155 Energy:      -157.416641  Gnorm:      0.000524  CPU:   11.900


  **** Optimisation achieved ****


  Final energy =    -157.41664158 eV      
  Final Gnorm  =       0.00041651

  Components of energy : 

--------------------------------------------------------------------------------
  Interatomic potentials     =          11.71535665 eV    
  Monopole - monopole (real) =         -63.74441093 eV    
  Monopole - monopole (recip)=        -105.38758730 eV    
  Monopole - monopole (total)=        -169.13199823 eV    
--------------------------------------------------------------------------------
  Total lattice energy       =        -157.41664158 eV    
--------------------------------------------------------------------------------
  Total lattice energy       =          -15188.2996 kJ/(mole unit cells)
--------------------------------------------------------------------------------

  Final fractional coordinates of atoms :

--------------------------------------------------------------------------------
   No.  Atomic        x           y          z          Radius
        Label       (Frac)      (Frac)     (Frac)       (Angs) 
--------------------------------------------------------------------------------
     1  Ti    c     0.127695    0.568999    0.599186    0.000000
     2  Ti    c     0.627712    0.069039    0.099241    0.000000
     3  Ti    c     0.627833    0.568984    0.099214    0.000000
     4  Ti    c     0.127844    0.069011    0.599255    0.000000
     5  O     c     0.265171    0.023022    0.052673    0.000000
     6  O     c     0.469181    0.540147    0.476288    0.000000
     7  O     c     0.287050    0.222225    0.658335    0.000000
     8  O     c     0.582894    0.205213    0.734830    0.000000
     9  O     c     0.787051    0.722217    0.158324    0.000000
    10  O     c     0.969186    0.040078    0.976183    0.000000
    11  O     c     0.082892    0.705190    0.234798    0.000000
    12  O     c     0.765163    0.522983    0.552617    0.000000
--------------------------------------------------------------------------------

  Final Cartesian lattice vectors (Angstroms) :

        5.868304    1.185093    0.156663
       -8.494461   11.283146  -11.583501
        5.529614   -6.954104    8.696013


  Final cell parameters and derivatives :

--------------------------------------------------------------------------------
       a            5.988821 Angstrom     dE/de1(xx)    -0.002428 eV/strain
       b           18.265891 Angstrom     dE/de2(yy)    -0.000679 eV/strain
       c           12.432090 Angstrom     dE/de3(zz)    -0.001511 eV/strain
       alpha      174.847396 Degrees      dE/de4(yz)     0.000984 eV/strain
       beta        69.913235 Degrees      dE/de5(xz)    -0.000752 eV/strain
       gamma      110.489718 Degrees      dE/de6(xy)    -0.000470 eV/strain
--------------------------------------------------------------------------------

  Primitive cell volume =           114.192129 Angs**3

  Density of cell =      4.646414 g/cm**3

  Non-primitive cell volume =           114.192129 Angs**3


  Final internal derivatives :

--------------------------------------------------------------------------------
   No.  Atomic          a             b             c           Radius
        Label          (eV)          (eV)          (eV)        (eV/Angs)
--------------------------------------------------------------------------------
      1 Ti    c       0.000000      0.000000      0.000000      0.000000
      2 Ti    c       0.002399     -0.001379     -0.004577      0.000000
      3 Ti    c       0.000720      0.000613     -0.004752      0.000000
      4 Ti    c       0.000658      0.000049     -0.004266      0.000000
      5 O     c       0.001124      0.002309      0.002317      0.000000
      6 O     c      -0.000043     -0.000944      0.005171      0.000000
      7 O     c       0.001108      0.003126     -0.000285      0.000000
      8 O     c      -0.000182     -0.000173      0.001162      0.000000
      9 O     c      -0.000808     -0.002539      0.003369      0.000000
     10 O     c       0.001142      0.006123     -0.000818      0.000000
     11 O     c       0.001458     -0.006165      0.004886      0.000000
     12 O     c      -0.001097      0.000834      0.002613      0.000000
--------------------------------------------------------------------------------
  Maximum abs         0.002399      0.006165      0.005171      0.000000
--------------------------------------------------------------------------------


  Time to end of optimisation =      11.9710 seconds


  Peak dynamic memory used =       1.84 MB 


  Timing analysis for GULP :

--------------------------------------------------------------------------------
  Task / Subroutine                                          Time (Seconds)
--------------------------------------------------------------------------------
  Calculation of reciprocal space energy and derivatives          0.2149
  Calculation of real space energy and derivatives               11.7084
  Calculation and manipulation of Hessian matrix                  0.0022
  Calculation of matrix inversion                                 0.0040
  Global summation overhead                                       0.0010
--------------------------------------------------------------------------------
  Total CPU time                                                 11.9711
--------------------------------------------------------------------------------


  Job Finished at 11:23.21 29th May        2024                               

