********************************************************************************
*                       GENERAL UTILITY LATTICE PROGRAM                        *
*                                 Julian Gale                                  *
*                       Curtin Institute for Computation                       *
*                    School of Molecular and Life Sciences                     *
*                    Curtin University, Western Australia                      *
********************************************************************************
* Version = 6.0.0 * Last modified =  12th July 2021                            *
********************************************************************************
*  optimise     - perform optimisation run                                     *
*  conp         - constant pressure calculation                                *
*  conjugate    - use conjugate gradients minimiser                            *
********************************************************************************

  Job Started  at 11:08.30 29th May        2024                               

  Number of CPUs =     1


  Total number of configurations input =      1

********************************************************************************
*  Input for Configuration =   1                                               *
********************************************************************************

  Formula = Ti4O8                                                       

  Number of irreducible atoms/shells =      12


  Total number atoms/shells =      12

  Dimensionality = 3               :  Bulk   



  Cartesian lattice vectors (Angstroms) :

        4.937003   -0.764949   -0.291393
       -1.685728    6.027097   -1.411913
        0.154098   -0.880906    4.923750

  Cell parameters (Angstroms/Degrees):

  a =       5.0044    alpha = 112.9538
  b =       6.4157    beta  =  90.0003
  c =       5.0043    gamma = 112.9542

  Initial cell volume =         134.024851 Angs**3

  Temperature of configuration =   0.00     K 

  Pressure of configuration =         0.000 GPa 

  Fractional coordinates of asymmetric unit :

--------------------------------------------------------------------------------
   No.  Atomic       x           y          z         Charge      Occupancy
        Label      (Frac)      (Frac)     (Frac)        (e)         (Frac)  
--------------------------------------------------------------------------------
      1 Ti    c    0.362676    0.408362    0.774763     2.19600    1.000000    
      2 Ti    c    0.123179 *  0.929404 *  0.014238 *   2.19600    1.000000    
      3 Ti    c    0.541230 *  0.807603 *  0.432304 *   2.19600    1.000000    
      4 Ti    c    0.977453 *  0.923454 *  0.937960 *   2.19600    1.000000    
      5 O     c    0.180644 *  0.504644 *  0.481241 *  -1.09800    1.000000    
      6 O     c    0.432994 *  0.190279 *  0.374831 *  -1.09800    1.000000    
      7 O     c    0.470929 *  0.025707 *  0.832254 *  -1.09800    1.000000    
      8 O     c    0.074242 *  0.190290 *  0.914524 *  -1.09800    1.000000    
      9 O     c    0.262948 *  0.711332 *  0.084585 *  -1.09800    1.000000    
     10 O     c    0.895120 *  0.716771 *  0.334622 *  -1.09800    1.000000    
     11 O     c    0.753362 *  0.019735 *  0.644436 *  -1.09800    1.000000    
     12 O     c    0.645127 *  0.402411 *  0.586963 *  -1.09800    1.000000    
--------------------------------------------------------------------------------



********************************************************************************
*  General input information                                                   *
********************************************************************************

  Species output for all configurations : 

--------------------------------------------------------------------------------
  Species    Type    Atomic    Atomic    Charge       Radii (Angs)     Library
                     Number     Mass       (e)     Cova   Ionic  VDW   Symbol
--------------------------------------------------------------------------------
    Ti       Core       22      47.88   2.196000   1.470  0.000  2.190          
    O        Core        8      16.00  -1.098000   0.730  0.000  1.360          
--------------------------------------------------------------------------------


  Lattice summation method               =    Ewald          (3-D)
                                         =    Parry          (2-D)
                                         =    Saunders et al (1-D)
  Accuracy factor for lattice sums       =   12.000


  Analytic derivatives to be used

  Time limit = Infinity

  Maximum range for interatomic potentials =    100000.000000 Angstroms

  General interatomic potentials :

--------------------------------------------------------------------------------
Atom  Types   Potential      Parameter       Value         Units   Cutoffs(Ang)
  1     2                                                            Min /  Max 
--------------------------------------------------------------------------------
Ti   c Ti   c Buckingham    Buckingham A     31120.100    eV        0.000 15.000
                            Buckingham rho  0.15400000    Ang       
                            Buckingham C     5.2500000    eV*Ang^6  
--------------------------------------------------------------------------------
O    c O    c Buckingham    Buckingham A     11782.700    eV        0.000 15.000
                            Buckingham rho  0.23400000    Ang       
                            Buckingham C     30.220000    eV*Ang^6  
--------------------------------------------------------------------------------
O    c Ti   c Buckingham    Buckingham A     16957.500    eV        0.000 15.000
                            Buckingham rho  0.19400000    Ang       
                            Buckingham C     12.590000    eV*Ang^6  
--------------------------------------------------------------------------------
Ti   c Ti   c Lennard       Lennard-Jones A  1.0000000    eV*Ang^m  0.000 15.000
                            Lennard-Jones B  0.0000000    eV*Ang^n  
                            Exponent m        12          None
                            Exponent n         6          None
--------------------------------------------------------------------------------
O    c O    c Lennard       Lennard-Jones A  1.0000000    eV*Ang^m  0.000 15.000
                            Lennard-Jones B  0.0000000    eV*Ang^n  
                            Exponent m        12          None
                            Exponent n         6          None
--------------------------------------------------------------------------------
O    c Ti   c Lennard       Lennard-Jones A  1.0000000    eV*Ang^m  0.000 15.000
                            Lennard-Jones B  0.0000000    eV*Ang^n  
                            Exponent m        12          None
                            Exponent n         6          None
--------------------------------------------------------------------------------

********************************************************************************
*  Output for configuration   1                                                *
********************************************************************************


  Components of energy : 

--------------------------------------------------------------------------------
  Interatomic potentials     =         228.00796504 eV    
  Monopole - monopole (real) =          -0.71733940 eV    
  Monopole - monopole (recip)=         -93.59201392 eV    
  Monopole - monopole (total)=         -94.30935332 eV    
--------------------------------------------------------------------------------
  Total lattice energy       =         133.69861172 eV    
--------------------------------------------------------------------------------
  Total lattice energy       =           12899.8723 kJ/(mole unit cells)
--------------------------------------------------------------------------------


  Number of variables =       39

  Maximum number of calculations  =          1000
  Maximum Hessian update interval =            10
  Maximum step size               =   1.000000000
  Maximum parameter tolerance     =   0.000010000
  Maximum function  tolerance     =   0.000010000
  Maximum gradient  tolerance     =   0.001000000
  Maximum gradient  component     =   0.010000000

  Symmetry not applied to optimisation

  Cell parameters to be optimised using strains

  Conjugate gradient optimiser to be used

  Lower half triangular hessian to be used

  Minimiser to switch to BFGS with exact hessian
  When gradient norm is less than     0.500000

  Start of bulk optimisation :

  Cycle:      0 Energy:       133.698612  Gnorm:    271.404890  CPU:    0.026
  Cycle:      1 Energy:       -67.294371  Gnorm:     22.596472  CPU:    0.066
  Cycle:      2 Energy:      -113.049305  Gnorm:      7.911779  CPU:    0.117
  Cycle:      3 Energy:      -128.533035  Gnorm:      6.091890  CPU:    0.155
  Cycle:      4 Energy:      -135.248616  Gnorm:      3.306297  CPU:    0.190
  Cycle:      5 Energy:      -140.867645  Gnorm:      2.175946  CPU:    0.223
  Cycle:      6 Energy:      -144.920246  Gnorm:      1.776011  CPU:    0.256
  Cycle:      7 Energy:      -146.438313  Gnorm:      1.072543  CPU:    0.286
  Cycle:      8 Energy:      -147.945677  Gnorm:      1.053694  CPU:    0.319
  Cycle:      9 Energy:      -148.901578  Gnorm:      0.866551  CPU:    0.347
  Cycle:     10 Energy:      -149.334197  Gnorm:      0.552950  CPU:    0.375
  Cycle:     11 Energy:      -149.671163  Gnorm:      0.566858  CPU:    0.412
  Cycle:     12 Energy:      -150.262890  Gnorm:      0.551058  CPU:    0.453
  Cycle:     13 Energy:      -150.449185  Gnorm:      0.510812  CPU:    0.491
  Cycle:     14 Energy:      -150.709143  Gnorm:      0.396663  CPU:    0.540
  ** Hessian calculated **
  Cycle:     15 Energy:      -151.059906  Gnorm:      0.271942  CPU:    0.644
  Cycle:     16 Energy:      -151.238958  Gnorm:      0.320456  CPU:    0.693
  ** Hessian calculated **
  Cycle:     17 Energy:      -151.344054  Gnorm:      0.259416  CPU:    0.770
  Cycle:     18 Energy:      -151.485995  Gnorm:      0.187949  CPU:    0.822
  Cycle:     19 Energy:      -151.566936  Gnorm:      0.242988  CPU:    0.861
  Cycle:     20 Energy:      -151.765513  Gnorm:      0.450250  CPU:    0.911
  Cycle:     21 Energy:      -152.169376  Gnorm:      0.715289  CPU:    0.964
  Cycle:     22 Energy:      -152.432667  Gnorm:      0.730574  CPU:    1.007
  Cycle:     23 Energy:      -153.160604  Gnorm:      0.679196  CPU:    1.060
  Cycle:     24 Energy:      -153.537443  Gnorm:      0.628295  CPU:    1.105
  Cycle:     25 Energy:      -153.812618  Gnorm:      0.479845  CPU:    1.147
  Cycle:     26 Energy:      -153.969062  Gnorm:      0.312442  CPU:    1.190
  ** Hessian calculated **
  Cycle:     27 Energy:      -154.079132  Gnorm:      0.298670  CPU:    1.277
  Cycle:     28 Energy:      -154.230080  Gnorm:      0.273482  CPU:    1.329
  Cycle:     29 Energy:      -154.324528  Gnorm:      0.290207  CPU:    1.374
  Cycle:     30 Energy:      -154.391428  Gnorm:      0.189226  CPU:    1.417
  Cycle:     31 Energy:      -154.438542  Gnorm:      0.159725  CPU:    1.469
  Cycle:     32 Energy:      -154.499120  Gnorm:      0.182319  CPU:    1.523
  Cycle:     33 Energy:      -154.568425  Gnorm:      0.158135  CPU:    1.575
  Cycle:     34 Energy:      -154.617910  Gnorm:      0.128392  CPU:    1.616
  Cycle:     35 Energy:      -154.653201  Gnorm:      0.145271  CPU:    1.668
  Cycle:     36 Energy:      -154.691175  Gnorm:      0.145691  CPU:    1.719
  ** Hessian calculated **
  Cycle:     37 Energy:      -154.717803  Gnorm:      0.102158  CPU:    1.804
  Cycle:     38 Energy:      -154.742707  Gnorm:      0.120198  CPU:    1.854
  Cycle:     39 Energy:      -154.777330  Gnorm:      0.145850  CPU:    1.905
  Cycle:     40 Energy:      -154.844631  Gnorm:      0.203117  CPU:    1.953
  Cycle:     41 Energy:      -154.954664  Gnorm:      0.343960  CPU:    1.999
  Cycle:     42 Energy:      -155.178402  Gnorm:      0.369415  CPU:    2.042
  Cycle:     43 Energy:      -155.392910  Gnorm:      0.291745  CPU:    2.071
  Cycle:     44 Energy:      -155.485233  Gnorm:      0.273594  CPU:    2.107
  Cycle:     45 Energy:      -155.630682  Gnorm:      0.257234  CPU:    2.136
  Cycle:     46 Energy:      -155.722276  Gnorm:      0.221750  CPU:    2.168
  ** Hessian calculated **
  Cycle:     47 Energy:      -155.912480  Gnorm:      0.051360  CPU:    2.244
  Cycle:     48 Energy:      -155.913601  Gnorm:      0.029475  CPU:    2.282
  ** Hessian calculated **
  Cycle:     49 Energy:      -155.914671  Gnorm:      0.015489  CPU:    2.355
  Cycle:     50 Energy:      -155.915344  Gnorm:      0.015585  CPU:    2.392
  Cycle:     51 Energy:      -155.915787  Gnorm:      0.013853  CPU:    2.424
  Cycle:     52 Energy:      -155.916350  Gnorm:      0.016635  CPU:    2.460
  Cycle:     53 Energy:      -155.917163  Gnorm:      0.018534  CPU:    2.496
  Cycle:     54 Energy:      -155.918041  Gnorm:      0.020879  CPU:    2.535
  Cycle:     55 Energy:      -155.919528  Gnorm:      0.027893  CPU:    2.571
  Cycle:     56 Energy:      -155.924523  Gnorm:      0.043324  CPU:    2.617
  Cycle:     57 Energy:      -155.937043  Gnorm:      0.065688  CPU:    2.666
  Cycle:     58 Energy:      -155.948186  Gnorm:      0.107392  CPU:    2.703
  ** Hessian calculated **
  Cycle:     59 Energy:      -155.969778  Gnorm:      0.103512  CPU:    2.781
  Cycle:     60 Energy:      -155.991358  Gnorm:      0.108117  CPU:    2.817
  Cycle:     61 Energy:      -156.017863  Gnorm:      0.099712  CPU:    2.854
  Cycle:     62 Energy:      -156.038124  Gnorm:      0.091291  CPU:    2.886
  Cycle:     63 Energy:      -156.061924  Gnorm:      0.104586  CPU:    2.923
  Cycle:     64 Energy:      -156.096532  Gnorm:      0.091003  CPU:    2.959
  Cycle:     65 Energy:      -156.125254  Gnorm:      0.102607  CPU:    2.998
  Cycle:     66 Energy:      -156.184432  Gnorm:      0.209290  CPU:    3.042
  Cycle:     67 Energy:      -156.296074  Gnorm:      0.220658  CPU:    3.082
  Cycle:     68 Energy:      -156.333447  Gnorm:      0.171690  CPU:    3.119
  ** Hessian calculated **
  Cycle:     69 Energy:      -156.505110  Gnorm:      0.073009  CPU:    3.198
  Cycle:     70 Energy:      -156.521887  Gnorm:      0.033761  CPU:    3.228
  Cycle:     71 Energy:      -156.529463  Gnorm:      0.032482  CPU:    3.254
  Cycle:     72 Energy:      -156.532497  Gnorm:      0.026171  CPU:    3.275
  Cycle:     73 Energy:      -156.558643  Gnorm:      0.093023  CPU:    3.321
  Cycle:     74 Energy:      -156.559068  Gnorm:      0.141819  CPU:    3.343
  ** Hessian calculated **
  Cycle:     75 Energy:      -156.595603  Gnorm:      0.097641  CPU:    3.411
  Cycle:     76 Energy:      -156.615931  Gnorm:      0.101956  CPU:    3.438
  Cycle:     77 Energy:      -156.669789  Gnorm:      0.195364  CPU:    3.472
  Cycle:     78 Energy:      -156.794126  Gnorm:      0.329438  CPU:    3.506
  Cycle:     79 Energy:      -156.880628  Gnorm:      0.355744  CPU:    3.532
  Cycle:     80 Energy:      -157.050985  Gnorm:      0.259143  CPU:    3.564
  Cycle:     81 Energy:      -157.147344  Gnorm:      0.210510  CPU:    3.592
  Cycle:     82 Energy:      -157.222217  Gnorm:      0.177173  CPU:    3.618
  Cycle:     83 Energy:      -157.307557  Gnorm:      0.162944  CPU:    3.650
  Cycle:     84 Energy:      -157.357081  Gnorm:      0.114550  CPU:    3.676
  ** Hessian calculated **
  Cycle:     85 Energy:      -157.368490  Gnorm:      0.111592  CPU:    3.749
  Cycle:     86 Energy:      -157.440881  Gnorm:      0.041919  CPU:    3.781
  Cycle:     87 Energy:      -157.521403  Gnorm:      0.221828  CPU:    3.833
  Cycle:     88 Energy:      -157.535561  Gnorm:      0.305454  CPU:    3.861
  Cycle:     89 Energy:      -157.671004  Gnorm:      0.450853  CPU:    3.900
  Cycle:     90 Energy:      -157.764346  Gnorm:      0.456583  CPU:    3.924
  Cycle:     91 Energy:      -158.045663  Gnorm:      0.273442  CPU:    3.955
  Cycle:     92 Energy:      -158.239625  Gnorm:      0.201110  CPU:    3.978
  Cycle:     93 Energy:      -158.340986  Gnorm:      0.114153  CPU:    4.002
  Cycle:     94 Energy:      -158.374837  Gnorm:      0.106083  CPU:    4.025
  ** Hessian calculated **
  Cycle:     95 Energy:      -158.411404  Gnorm:      0.012026  CPU:    4.093
  Cycle:     96 Energy:      -158.411995  Gnorm:      0.002423  CPU:    4.117
  Cycle:     97 Energy:      -158.412023  Gnorm:      0.000139  CPU:    4.140


  **** Optimisation achieved ****


  Final energy =    -158.41202342 eV      
  Final Gnorm  =       0.00002020

  Components of energy : 

--------------------------------------------------------------------------------
  Interatomic potentials     =          11.73713180 eV    
  Monopole - monopole (real) =         -64.16880089 eV    
  Monopole - monopole (recip)=        -105.98035433 eV    
  Monopole - monopole (total)=        -170.14915522 eV    
--------------------------------------------------------------------------------
  Total lattice energy       =        -158.41202342 eV    
--------------------------------------------------------------------------------
  Total lattice energy       =          -15284.3387 kJ/(mole unit cells)
--------------------------------------------------------------------------------

  Final fractional coordinates of atoms :

--------------------------------------------------------------------------------
   No.  Atomic        x           y          z          Radius
        Label       (Frac)      (Frac)     (Frac)       (Angs) 
--------------------------------------------------------------------------------
     1  Ti    c     0.362676    0.408362    0.774763    0.000000
     2  Ti    c     0.862676    0.908361    0.774762    0.000000
     3  Ti    c     0.362678    0.908361    0.274763    0.000000
     4  Ti    c     0.862677    0.408361    0.274764    0.000000
     5  O     c     0.025132    0.745907    0.437218    0.000000
     6  O     c     0.200225    0.245910    0.112313    0.000000
     7  O     c     0.525129    0.070816    0.612309    0.000000
     8  O     c     0.025128    0.245908    0.612313    0.000000
     9  O     c     0.200223    0.745909    0.937217    0.000000
    10  O     c     0.700222    0.570816    0.937217    0.000000
    11  O     c     0.700225    0.070815    0.112309    0.000000
    12  O     c     0.525132    0.570816    0.437218    0.000000
--------------------------------------------------------------------------------

  Final Cartesian lattice vectors (Angstroms) :

        4.769045    0.678513   -0.240341
       -0.698872    4.750206   -0.457196
        0.172386    0.486911    4.795321


  Final cell parameters and derivatives :

--------------------------------------------------------------------------------
       a            4.823063 Angstrom     dE/de1(xx)     0.000036 eV/strain
       b            4.823060 Angstrom     dE/de2(yy)    -0.000081 eV/strain
       c            4.823060 Angstrom     dE/de3(zz)    -0.000067 eV/strain
       alpha       89.999878 Degrees      dE/de4(yz)     0.000126 eV/strain
       beta        90.000049 Degrees      dE/de5(xz)    -0.000080 eV/strain
       gamma       89.999977 Degrees      dE/de6(xy)     0.000041 eV/strain
--------------------------------------------------------------------------------

  Primitive cell volume =           112.193632 Angs**3

  Density of cell =      4.729180 g/cm**3

  Non-primitive cell volume =           112.193632 Angs**3


  Final internal derivatives :

--------------------------------------------------------------------------------
   No.  Atomic          a             b             c           Radius
        Label          (eV)          (eV)          (eV)        (eV/Angs)
--------------------------------------------------------------------------------
      1 Ti    c       0.000000      0.000000      0.000000      0.000000
      2 Ti    c       0.000051     -0.000021     -0.000270      0.000000
      3 Ti    c       0.000032     -0.000147     -0.000009      0.000000
      4 Ti    c       0.000032     -0.000029      0.000009      0.000000
      5 O     c       0.000185      0.000033      0.000158      0.000000
      6 O     c       0.000090     -0.000029      0.000288      0.000000
      7 O     c      -0.000036      0.000052      0.000007      0.000000
      8 O     c      -0.000331     -0.000147      0.000260      0.000000
      9 O     c       0.000061      0.000206      0.000026      0.000000
     10 O     c       0.000057      0.000075     -0.000100      0.000000
     11 O     c       0.000025     -0.000058     -0.000168      0.000000
     12 O     c      -0.000105     -0.000050     -0.000134      0.000000
--------------------------------------------------------------------------------
  Maximum abs         0.000331      0.000206      0.000288      0.000000
--------------------------------------------------------------------------------


  Time to end of optimisation =       4.1666 seconds


  Peak dynamic memory used =       1.84 MB 


  Timing analysis for GULP :

--------------------------------------------------------------------------------
  Task / Subroutine                                          Time (Seconds)
--------------------------------------------------------------------------------
  Calculation of reciprocal space energy and derivatives          0.1411
  Calculation of real space energy and derivatives                3.9930
  Calculation and manipulation of Hessian matrix                  0.0012
  Calculation of matrix inversion                                 0.0021
  Global summation overhead                                       0.0006
--------------------------------------------------------------------------------
  Total CPU time                                                  4.1666
--------------------------------------------------------------------------------


  Job Finished at 11:08.34 29th May        2024                               

