********************************************************************************
*                       GENERAL UTILITY LATTICE PROGRAM                        *
*                                 Julian Gale                                  *
*                       Curtin Institute for Computation                       *
*                    School of Molecular and Life Sciences                     *
*                    Curtin University, Western Australia                      *
********************************************************************************
* Version = 6.0.0 * Last modified =  12th July 2021                            *
********************************************************************************
*  optimise     - perform optimisation run                                     *
*  conp         - constant pressure calculation                                *
*  conjugate    - use conjugate gradients minimiser                            *
********************************************************************************

  Job Started  at 11:08.42 29th May        2024                               

  Number of CPUs =     1


  Total number of configurations input =      1

********************************************************************************
*  Input for Configuration =   1                                               *
********************************************************************************

  Formula = Ti4O8                                                       

  Number of irreducible atoms/shells =      12


  Total number atoms/shells =      12

  Dimensionality = 3               :  Bulk   



  Cartesian lattice vectors (Angstroms) :

        6.548905    0.650036    0.889638
        1.202719    4.760109   -0.564463
        0.494603   -0.256583    4.525049

  Cell parameters (Angstroms/Degrees):

  a =       6.6409    alpha =  98.1153
  b =       4.9420    beta  =  76.4420
  c =       4.5592    gamma =  71.3993

  Initial cell volume =         134.024851 Angs**3

  Temperature of configuration =   0.00     K 

  Pressure of configuration =         0.000 GPa 

  Fractional coordinates of asymmetric unit :

--------------------------------------------------------------------------------
   No.  Atomic       x           y          z         Charge      Occupancy
        Label      (Frac)      (Frac)     (Frac)        (e)         (Frac)  
--------------------------------------------------------------------------------
      1 Ti    c    0.756614    0.216694    0.230602     2.19600    1.000000    
      2 Ti    c    0.326282 *  0.006943 *  0.556059 *   2.19600    1.000000    
      3 Ti    c    0.328475 *  0.432281 *  0.240079 *   2.19600    1.000000    
      4 Ti    c    0.595632 *  0.109423 *  0.662262 *   2.19600    1.000000    
      5 O     c    0.668288 *  0.982892 *  0.175567 *  -1.09800    1.000000    
      6 O     c    0.336803 *  0.088648 *  0.059934 *  -1.09800    1.000000    
      7 O     c    0.748290 *  0.560325 *  0.410741 *  -1.09800    1.000000    
      8 O     c    0.416804 *  0.719000 *  0.295109 *  -1.09800    1.000000    
      9 O     c    0.949770 *  0.383063 *  0.662262 *  -1.09800    1.000000    
     10 O     c    0.772701 *  0.772701 *  0.935272 *  -1.09800    1.000000    
     11 O     c    0.072290 *  0.670314 *  0.931310 *  -1.09800    1.000000    
     12 O     c    0.246243 *  0.246243 *  0.662262 *  -1.09800    1.000000    
--------------------------------------------------------------------------------



********************************************************************************
*  General input information                                                   *
********************************************************************************

  Species output for all configurations : 

--------------------------------------------------------------------------------
  Species    Type    Atomic    Atomic    Charge       Radii (Angs)     Library
                     Number     Mass       (e)     Cova   Ionic  VDW   Symbol
--------------------------------------------------------------------------------
    Ti       Core       22      47.88   2.196000   1.470  0.000  2.190          
    O        Core        8      16.00  -1.098000   0.730  0.000  1.360          
--------------------------------------------------------------------------------


  Lattice summation method               =    Ewald          (3-D)
                                         =    Parry          (2-D)
                                         =    Saunders et al (1-D)
  Accuracy factor for lattice sums       =   12.000


  Analytic derivatives to be used

  Time limit = Infinity

  Maximum range for interatomic potentials =    100000.000000 Angstroms

  General interatomic potentials :

--------------------------------------------------------------------------------
Atom  Types   Potential      Parameter       Value         Units   Cutoffs(Ang)
  1     2                                                            Min /  Max 
--------------------------------------------------------------------------------
Ti   c Ti   c Buckingham    Buckingham A     31120.100    eV        0.000 15.000
                            Buckingham rho  0.15400000    Ang       
                            Buckingham C     5.2500000    eV*Ang^6  
--------------------------------------------------------------------------------
O    c O    c Buckingham    Buckingham A     11782.700    eV        0.000 15.000
                            Buckingham rho  0.23400000    Ang       
                            Buckingham C     30.220000    eV*Ang^6  
--------------------------------------------------------------------------------
O    c Ti   c Buckingham    Buckingham A     16957.500    eV        0.000 15.000
                            Buckingham rho  0.19400000    Ang       
                            Buckingham C     12.590000    eV*Ang^6  
--------------------------------------------------------------------------------
Ti   c Ti   c Lennard       Lennard-Jones A  1.0000000    eV*Ang^m  0.000 15.000
                            Lennard-Jones B  0.0000000    eV*Ang^n  
                            Exponent m        12          None
                            Exponent n         6          None
--------------------------------------------------------------------------------
O    c O    c Lennard       Lennard-Jones A  1.0000000    eV*Ang^m  0.000 15.000
                            Lennard-Jones B  0.0000000    eV*Ang^n  
                            Exponent m        12          None
                            Exponent n         6          None
--------------------------------------------------------------------------------
O    c Ti   c Lennard       Lennard-Jones A  1.0000000    eV*Ang^m  0.000 15.000
                            Lennard-Jones B  0.0000000    eV*Ang^n  
                            Exponent m        12          None
                            Exponent n         6          None
--------------------------------------------------------------------------------

********************************************************************************
*  Output for configuration   1                                                *
********************************************************************************


  Components of energy : 

--------------------------------------------------------------------------------
  Interatomic potentials     =         124.19173082 eV    
  Monopole - monopole (real) =         -38.58708617 eV    
  Monopole - monopole (recip)=         -90.73616977 eV    
  Monopole - monopole (total)=        -129.32325594 eV    
--------------------------------------------------------------------------------
  Total lattice energy       =          -5.13152512 eV    
--------------------------------------------------------------------------------
  Total lattice energy       =            -495.1137 kJ/(mole unit cells)
--------------------------------------------------------------------------------


  Number of variables =       39

  Maximum number of calculations  =          1000
  Maximum Hessian update interval =            10
  Maximum step size               =   1.000000000
  Maximum parameter tolerance     =   0.000010000
  Maximum function  tolerance     =   0.000010000
  Maximum gradient  tolerance     =   0.001000000
  Maximum gradient  component     =   0.010000000

  Symmetry not applied to optimisation

  Cell parameters to be optimised using strains

  Conjugate gradient optimiser to be used

  Lower half triangular hessian to be used

  Minimiser to switch to BFGS with exact hessian
  When gradient norm is less than     0.500000

  Start of bulk optimisation :

  Cycle:      0 Energy:        -5.131525  Gnorm:     45.602511  CPU:    0.032
  Cycle:      1 Energy:       -82.966762  Gnorm:     13.420793  CPU:    0.084
  Cycle:      2 Energy:      -115.714667  Gnorm:      6.028154  CPU:    0.146
  Cycle:      3 Energy:      -127.765409  Gnorm:      2.851932  CPU:    0.190
  Cycle:      4 Energy:      -132.371789  Gnorm:      2.220026  CPU:    0.221
  Cycle:      5 Energy:      -134.519912  Gnorm:      2.772399  CPU:    0.247
  Cycle:      6 Energy:      -137.153833  Gnorm:      1.793304  CPU:    0.279
  Cycle:      7 Energy:      -139.459909  Gnorm:      1.291313  CPU:    0.314
  Cycle:      8 Energy:      -140.512370  Gnorm:      1.222472  CPU:    0.346
  Cycle:      9 Energy:      -141.473337  Gnorm:      1.386299  CPU:    0.379
  Cycle:     10 Energy:      -142.058397  Gnorm:      0.879112  CPU:    0.407
  Cycle:     11 Energy:      -143.078666  Gnorm:      1.705034  CPU:    0.443
  Cycle:     12 Energy:      -144.944955  Gnorm:      1.468421  CPU:    0.482
  Cycle:     13 Energy:      -146.165690  Gnorm:      0.899112  CPU:    0.527
  Cycle:     14 Energy:      -147.044597  Gnorm:      0.848278  CPU:    0.568
  Cycle:     15 Energy:      -147.658225  Gnorm:      1.123151  CPU:    0.603
  Cycle:     16 Energy:      -148.414327  Gnorm:      0.998108  CPU:    0.631
  Cycle:     17 Energy:      -149.340827  Gnorm:      1.022825  CPU:    0.666
  Cycle:     18 Energy:      -149.791126  Gnorm:      1.232793  CPU:    0.698
  Cycle:     19 Energy:      -150.823306  Gnorm:      1.179350  CPU:    0.734
  Cycle:     20 Energy:      -151.312824  Gnorm:      0.789061  CPU:    0.764
  Cycle:     21 Energy:      -151.557754  Gnorm:      0.804221  CPU:    0.804
  Cycle:     22 Energy:      -151.933907  Gnorm:      0.703134  CPU:    0.842
  Cycle:     23 Energy:      -152.601662  Gnorm:      1.189414  CPU:    0.880
  Cycle:     24 Energy:      -152.965652  Gnorm:      0.907262  CPU:    0.913
  Cycle:     25 Energy:      -153.339758  Gnorm:      0.646404  CPU:    0.945
  Cycle:     26 Energy:      -153.546810  Gnorm:      0.657493  CPU:    0.984
  Cycle:     27 Energy:      -153.739974  Gnorm:      0.343811  CPU:    1.025
  ** Hessian calculated **
  Cycle:     28 Energy:      -153.897606  Gnorm:      0.321920  CPU:    1.100
  Cycle:     29 Energy:      -153.954103  Gnorm:      0.210761  CPU:    1.131
  Cycle:     30 Energy:      -153.998141  Gnorm:      0.174486  CPU:    1.170
  Cycle:     31 Energy:      -154.037917  Gnorm:      0.198492  CPU:    1.210
  Cycle:     32 Energy:      -154.080334  Gnorm:      0.195574  CPU:    1.249
  Cycle:     33 Energy:      -154.115531  Gnorm:      0.171021  CPU:    1.283
  Cycle:     34 Energy:      -154.168872  Gnorm:      0.181726  CPU:    1.322
  Cycle:     35 Energy:      -154.214164  Gnorm:      0.210609  CPU:    1.362
  Cycle:     36 Energy:      -154.265114  Gnorm:      0.217118  CPU:    1.402
  Cycle:     37 Energy:      -154.307737  Gnorm:      0.211164  CPU:    1.434
  ** Hessian calculated **
  Cycle:     38 Energy:      -154.341215  Gnorm:      0.171633  CPU:    1.509
  Cycle:     39 Energy:      -154.387928  Gnorm:      0.220734  CPU:    1.548
  Cycle:     40 Energy:      -154.489303  Gnorm:      0.235492  CPU:    1.596
  Cycle:     41 Energy:      -154.544324  Gnorm:      0.248833  CPU:    1.627
  Cycle:     42 Energy:      -154.613752  Gnorm:      0.179685  CPU:    1.658
  Cycle:     43 Energy:      -154.649397  Gnorm:      0.133426  CPU:    1.696
  Cycle:     44 Energy:      -154.676641  Gnorm:      0.168775  CPU:    1.737
  Cycle:     45 Energy:      -154.711345  Gnorm:      0.137517  CPU:    1.775
  Cycle:     46 Energy:      -154.741543  Gnorm:      0.110664  CPU:    1.805
  Cycle:     47 Energy:      -154.771882  Gnorm:      0.173266  CPU:    1.844
  ** Hessian calculated **
  Cycle:     48 Energy:      -154.800201  Gnorm:      0.170108  CPU:    1.916
  Cycle:     49 Energy:      -154.841137  Gnorm:      0.155725  CPU:    1.956
  Cycle:     50 Energy:      -154.894532  Gnorm:      0.182149  CPU:    1.993
  Cycle:     51 Energy:      -154.955131  Gnorm:      0.208815  CPU:    2.031
  Cycle:     52 Energy:      -155.013304  Gnorm:      0.167829  CPU:    2.062
  Cycle:     53 Energy:      -155.056279  Gnorm:      0.181943  CPU:    2.102
  Cycle:     54 Energy:      -155.101281  Gnorm:      0.179316  CPU:    2.140
  Cycle:     55 Energy:      -155.145060  Gnorm:      0.130500  CPU:    2.171
  Cycle:     56 Energy:      -155.165211  Gnorm:      0.124017  CPU:    2.204
  Cycle:     57 Energy:      -155.182964  Gnorm:      0.134137  CPU:    2.243
  ** Hessian calculated **
  Cycle:     58 Energy:      -155.333760  Gnorm:      0.114552  CPU:    2.337
  Cycle:     59 Energy:      -155.375744  Gnorm:      0.137826  CPU:    2.368
  Cycle:     60 Energy:      -155.397462  Gnorm:      0.083475  CPU:    2.401
  Cycle:     61 Energy:      -155.402965  Gnorm:      0.046721  CPU:    2.437
  Cycle:     62 Energy:      -155.404786  Gnorm:      0.019049  CPU:    2.474
  Cycle:     63 Energy:      -155.405018  Gnorm:      0.003575  CPU:    2.504
  Cycle:     64 Energy:      -155.405053  Gnorm:      0.002012  CPU:    2.537
  Cycle:     65 Energy:      -155.405063  Gnorm:      0.000828  CPU:    2.581
  Cycle:     66 Energy:      -155.405063  Gnorm:      0.000803  CPU:    2.618
  Cycle:     67 Energy:      -155.405064  Gnorm:      0.000791  CPU:    2.657
  ** Hessian calculated **
  Cycle:     68 Energy:      -155.405064  Gnorm:      0.000758  CPU:    2.752
  Cycle:     69 Energy:      -155.405064  Gnorm:      0.000742  CPU:    2.789
  Cycle:     70 Energy:      -155.405064  Gnorm:      0.000734  CPU:    2.826
  Cycle:     71 Energy:      -155.405061  Gnorm:      0.000819  CPU:    2.914
  ** Hessian calculated **
  Cycle:     72 Energy:      -155.405062  Gnorm:      0.001024  CPU:    2.983
  Cycle:     73 Energy:      -155.405063  Gnorm:      0.000922  CPU:    3.021
  Cycle:     74 Energy:      -155.405063  Gnorm:      0.000896  CPU:    3.058
  Cycle:     75 Energy:      -155.405063  Gnorm:      0.000884  CPU:    3.104
  Cycle:     76 Energy:      -155.405063  Gnorm:      0.000880  CPU:    3.141
  Cycle:     77 Energy:      -155.405063  Gnorm:      0.000880  CPU:    3.229
  Cycle:     78 Energy:      -155.405064  Gnorm:      0.000764  CPU:    3.259
  Cycle:     79 Energy:      -155.405064  Gnorm:      0.000751  CPU:    3.299
  Cycle:     80 Energy:      -155.405064  Gnorm:      0.000745  CPU:    3.335
  Cycle:     81 Energy:      -155.405064  Gnorm:      0.000742  CPU:    3.374
  ** Hessian calculated **
  Cycle:     82 Energy:      -155.405064  Gnorm:      0.000714  CPU:    3.453
  Cycle:     83 Energy:      -155.405064  Gnorm:      0.000714  CPU:    3.555
  Cycle:     84 Energy:      -155.405064  Gnorm:      0.000714  CPU:    3.585
  Cycle:     85 Energy:      -155.405064  Gnorm:      0.000714  CPU:    3.621
  Cycle:     86 Energy:      -155.405064  Gnorm:      0.000714  CPU:    3.666
  Cycle:     87 Energy:      -155.405064  Gnorm:      0.000713  CPU:    3.702
  Cycle:     88 Energy:      -155.405064  Gnorm:      0.000713  CPU:    3.749
  Cycle:     89 Energy:      -155.405064  Gnorm:      0.000713  CPU:    3.779
  Cycle:     90 Energy:      -155.405064  Gnorm:      0.000713  CPU:    3.826
  Cycle:     91 Energy:      -155.405064  Gnorm:      0.000713  CPU:    3.856
  ** Hessian calculated **
  Cycle:     92 Energy:      -155.405062  Gnorm:      0.000713  CPU:    4.020
  ** Hessian calculated **
  Cycle:     93 Energy:      -155.405063  Gnorm:      0.000813  CPU:    4.105
  Cycle:     94 Energy:      -155.405064  Gnorm:      0.000764  CPU:    4.143
  Cycle:     95 Energy:      -155.405064  Gnorm:      0.000739  CPU:    4.182
  Cycle:     96 Energy:      -155.405064  Gnorm:      0.000726  CPU:    4.219
  Cycle:     97 Energy:      -155.405064  Gnorm:      0.000720  CPU:    4.257
  Cycle:     98 Energy:      -155.405064  Gnorm:      0.000717  CPU:    4.293
  Cycle:     99 Energy:      -155.405064  Gnorm:      0.000715  CPU:    4.333
  Cycle:    100 Energy:      -155.405064  Gnorm:      0.000715  CPU:    4.370
  Cycle:    101 Energy:      -155.405064  Gnorm:      0.000714  CPU:    4.400
  Cycle:    102 Energy:      -155.405064  Gnorm:      0.000714  CPU:    4.433
  ** Hessian calculated **
  Cycle:    103 Energy:      -155.405062  Gnorm:      0.000715  CPU:    4.596
  ** Hessian calculated **
  Cycle:    104 Energy:      -155.405063  Gnorm:      0.000815  CPU:    4.681
  Cycle:    105 Energy:      -155.405064  Gnorm:      0.000765  CPU:    4.719
  Cycle:    106 Energy:      -155.405064  Gnorm:      0.000740  CPU:    4.758
  Cycle:    107 Energy:      -155.405064  Gnorm:      0.000728  CPU:    4.795
  Cycle:    108 Energy:      -155.405064  Gnorm:      0.000721  CPU:    4.833
  Cycle:    109 Energy:      -155.405064  Gnorm:      0.000718  CPU:    4.869
  Cycle:    110 Energy:      -155.405064  Gnorm:      0.000717  CPU:    4.909
  Cycle:    111 Energy:      -155.405064  Gnorm:      0.000716  CPU:    4.946
  Cycle:    112 Energy:      -155.405064  Gnorm:      0.000716  CPU:    5.034
  ** Hessian calculated **
  Cycle:    113 Energy:      -155.405064  Gnorm:      0.000715  CPU:    5.142
  Cycle:    114 Energy:      -155.405064  Gnorm:      0.000715  CPU:    5.173
  Cycle:    115 Energy:      -155.405062  Gnorm:      0.000715  CPU:    5.258
  ** Hessian calculated **
  Cycle:    116 Energy:      -155.405063  Gnorm:      0.000815  CPU:    5.344
  Cycle:    117 Energy:      -155.405064  Gnorm:      0.000766  CPU:    5.381
  Cycle:    118 Energy:      -155.405064  Gnorm:      0.000741  CPU:    5.421
  Cycle:    119 Energy:      -155.405064  Gnorm:      0.000728  CPU:    5.458
  Cycle:    120 Energy:      -155.405064  Gnorm:      0.000722  CPU:    5.495
  Cycle:    121 Energy:      -155.405064  Gnorm:      0.000719  CPU:    5.532
  Cycle:    122 Energy:      -155.405064  Gnorm:      0.000717  CPU:    5.571
  Cycle:    123 Energy:      -155.405064  Gnorm:      0.000717  CPU:    5.602
  Cycle:    124 Energy:      -155.405064  Gnorm:      0.000717  CPU:    5.638
  Cycle:    125 Energy:      -155.405064  Gnorm:      0.000716  CPU:    5.671
  ** Hessian calculated **
  Cycle:    126 Energy:      -155.405062  Gnorm:      0.000717  CPU:    5.834
  ** Hessian calculated **
  Cycle:    127 Energy:      -155.405063  Gnorm:      0.000817  CPU:    5.918
  Cycle:    128 Energy:      -155.405064  Gnorm:      0.000767  CPU:    5.955
  Cycle:    129 Energy:      -155.405064  Gnorm:      0.000742  CPU:    5.995
  Cycle:    130 Energy:      -155.405064  Gnorm:      0.000730  CPU:    6.031
  Cycle:    131 Energy:      -155.405064  Gnorm:      0.000723  CPU:    6.069
  Cycle:    132 Energy:      -155.405064  Gnorm:      0.000720  CPU:    6.105
  Cycle:    133 Energy:      -155.405064  Gnorm:      0.000719  CPU:    6.145
  Cycle:    134 Energy:      -155.405064  Gnorm:      0.000718  CPU:    6.182
  Cycle:    135 Energy:      -155.405064  Gnorm:      0.000718  CPU:    6.270
  ** Hessian calculated **
  Cycle:    136 Energy:      -155.405064  Gnorm:      0.000717  CPU:    6.379
  Cycle:    137 Energy:      -155.405062  Gnorm:      0.000717  CPU:    6.463
  ** Hessian calculated **
  Cycle:    138 Energy:      -155.405063  Gnorm:      0.000818  CPU:    6.550
  Cycle:    139 Energy:      -155.405064  Gnorm:      0.000768  CPU:    6.587
  Cycle:    140 Energy:      -155.405064  Gnorm:      0.000743  CPU:    6.624
  Cycle:    141 Energy:      -155.405064  Gnorm:      0.000730  CPU:    6.661
  Cycle:    142 Energy:      -155.405064  Gnorm:      0.000724  CPU:    6.698
  Cycle:    143 Energy:      -155.405064  Gnorm:      0.000721  CPU:    6.737
  Cycle:    144 Energy:      -155.405064  Gnorm:      0.000719  CPU:    6.775
  Cycle:    145 Energy:      -155.405064  Gnorm:      0.000719  CPU:    6.812
  Cycle:    146 Energy:      -155.405064  Gnorm:      0.000718  CPU:    6.844
  Cycle:    147 Energy:      -155.405064  Gnorm:      0.000718  CPU:    6.932
  ** Hessian calculated **
  Cycle:    148 Energy:      -155.405064  Gnorm:      0.000719  CPU:    7.095
  Cycle:    149 Energy:      -155.405064  Gnorm:      0.000719  CPU:    7.125
  Cycle:    150 Energy:      -155.405064  Gnorm:      0.000719  CPU:    7.155
  Cycle:    151 Energy:      -155.405064  Gnorm:      0.000719  CPU:    7.185
  Cycle:    152 Energy:      -155.405064  Gnorm:      0.000719  CPU:    7.216
  Cycle:    153 Energy:      -155.405064  Gnorm:      0.000719  CPU:    7.245
  Cycle:    154 Energy:      -155.405064  Gnorm:      0.000719  CPU:    7.278
  Cycle:    155 Energy:      -155.405064  Gnorm:      0.000719  CPU:    7.308
  Cycle:    156 Energy:      -155.405064  Gnorm:      0.000719  CPU:    7.339


  **** Too many failed attempts to optimise ****

  Final energy =    -155.40506422 eV      
  Final Gnorm  =       0.00071891

  Components of energy : 

--------------------------------------------------------------------------------
  Interatomic potentials     =          11.85769426 eV    
  Monopole - monopole (real) =         -65.63769006 eV    
  Monopole - monopole (recip)=        -101.62506842 eV    
  Monopole - monopole (total)=        -167.26275848 eV    
--------------------------------------------------------------------------------
  Total lattice energy       =        -155.40506422 eV    
--------------------------------------------------------------------------------
  Total lattice energy       =          -14994.2131 kJ/(mole unit cells)
--------------------------------------------------------------------------------

  Final fractional coordinates of atoms :

--------------------------------------------------------------------------------
   No.  Atomic        x           y          z          Radius
        Label       (Frac)      (Frac)     (Frac)       (Angs) 
--------------------------------------------------------------------------------
     1  Ti    c     0.756614    0.216694    0.230602    0.000000
     2  Ti    c     0.110666    0.093493    0.553139    0.000000
     3  Ti    c     0.209340    0.521998    0.002991    0.000000
     4  Ti    c     0.533379    0.898272    0.842653    0.000000
     5  O     c     0.452194    0.161251    0.383502    0.000000
     6  O     c     0.260767    0.080069    0.978052    0.000000
     7  O     c     0.592417    0.636759    0.312985    0.000000
     8  O     c     0.270307    0.684994    0.472442    0.000000
     9  O     c     0.849583    0.328195    0.684055    0.000000
    10  O     c     0.705774    0.040699    0.756080    0.000000
    11  O     c     0.022155    0.946531    0.097232    0.000000
    12  O     c     0.089883    0.468755    0.563241    0.000000
--------------------------------------------------------------------------------

  Final Cartesian lattice vectors (Angstroms) :

        8.831381    1.158820    0.206584
        2.034450    5.003150   -0.220631
        0.469309   -0.059040    3.026362


  Final cell parameters and derivatives :

--------------------------------------------------------------------------------
       a            8.909480 Angstrom     dE/de1(xx)     0.002635 eV/strain
       b            5.405477 Angstrom     dE/de2(yy)    -0.002601 eV/strain
       c            3.063104 Angstrom     dE/de3(zz)     0.002794 eV/strain
       alpha       90.028751 Degrees      dE/de4(yz)    -0.003813 eV/strain
       beta        80.080036 Degrees      dE/de5(xz)    -0.004350 eV/strain
       gamma       60.494444 Degrees      dE/de6(xy)    -0.003499 eV/strain
--------------------------------------------------------------------------------

  Primitive cell volume =           125.839240 Angs**3

  Density of cell =      4.216363 g/cm**3

  Non-primitive cell volume =           125.839240 Angs**3


  Final internal derivatives :

--------------------------------------------------------------------------------
   No.  Atomic          a             b             c           Radius
        Label          (eV)          (eV)          (eV)        (eV/Angs)
--------------------------------------------------------------------------------
      1 Ti    c       0.000000      0.000000      0.000000      0.000000
      2 Ti    c       0.011251      0.001645      0.004158      0.000000
      3 Ti    c      -0.010954     -0.005467     -0.007891      0.000000
      4 Ti    c       0.005413     -0.001624     -0.002492      0.000000
      5 O     c      -0.002316     -0.000908      0.003271      0.000000
      6 O     c      -0.009474     -0.000329      0.000429      0.000000
      7 O     c      -0.001712      0.001847      0.000715      0.000000
      8 O     c      -0.005122      0.001920      0.000672      0.000000
      9 O     c       0.003321      0.000505     -0.000218      0.000000
     10 O     c       0.006137     -0.002081      0.002263      0.000000
     11 O     c      -0.006687     -0.003644      0.001937      0.000000
     12 O     c       0.006465      0.002793      0.002838      0.000000
--------------------------------------------------------------------------------
  Maximum abs         0.011251      0.005467      0.007891      0.000000
--------------------------------------------------------------------------------


  Time to end of optimisation =       7.3621 seconds


  Peak dynamic memory used =       1.84 MB 


  Timing analysis for GULP :

--------------------------------------------------------------------------------
  Task / Subroutine                                          Time (Seconds)
--------------------------------------------------------------------------------
  Calculation of reciprocal space energy and derivatives          0.2384
  Calculation of real space energy and derivatives                7.0747
  Calculation and manipulation of Hessian matrix                  0.0020
  Calculation of matrix inversion                                 0.0035
  Global summation overhead                                       0.0012
--------------------------------------------------------------------------------
  Total CPU time                                                  7.3622
--------------------------------------------------------------------------------


  Job Finished at 11:08.49 29th May        2024                               

