********************************************************************************
*                       GENERAL UTILITY LATTICE PROGRAM                        *
*                                 Julian Gale                                  *
*                       Curtin Institute for Computation                       *
*                    School of Molecular and Life Sciences                     *
*                    Curtin University, Western Australia                      *
********************************************************************************
* Version = 6.0.0 * Last modified =  12th July 2021                            *
********************************************************************************
*  optimise     - perform optimisation run                                     *
*  conp         - constant pressure calculation                                *
*  conjugate    - use conjugate gradients minimiser                            *
********************************************************************************

  Job Started  at 11:07.50 29th May        2024                               

  Number of CPUs =     1


  Total number of configurations input =      1

********************************************************************************
*  Input for Configuration =   1                                               *
********************************************************************************

  Formula = Ti4O8                                                       

  Number of irreducible atoms/shells =      12


  Total number atoms/shells =      12

  Dimensionality = 3               :  Bulk   



  Cartesian lattice vectors (Angstroms) :

        5.728859   -0.707913    0.015544
       -1.575118    6.667480   -1.310019
        0.582628   -0.151593    3.631920

  Cell parameters (Angstroms/Degrees):

  a =       5.7725    alpha = 105.0928
  b =       6.9751    beta  =  80.5161
  c =       3.6815    gamma = 109.9894

  Initial cell volume =         134.024851 Angs**3

  Temperature of configuration =   0.00     K 

  Pressure of configuration =         0.000 GPa 

  Fractional coordinates of asymmetric unit :

--------------------------------------------------------------------------------
   No.  Atomic       x           y          z         Charge      Occupancy
        Label      (Frac)      (Frac)     (Frac)        (e)         (Frac)  
--------------------------------------------------------------------------------
      1 Ti    c    0.249350    0.125039    0.524478     2.19600    1.000000    
      2 Ti    c    0.249352 *  0.568187 *  0.081329 *   2.19600    1.000000    
      3 Ti    c    0.640019 *  0.148918 *  0.063061 *   2.19600    1.000000    
      4 Ti    c    0.915126 *  0.737659 *  0.815354 *   2.19600    1.000000    
      5 O     c    0.249350 *  0.299386 *  0.081331 *  -1.09800    1.000000    
      6 O     c    0.249351 *  0.836987 *  0.081328 *  -1.09800    1.000000    
      7 O     c    0.075003 *  0.568186 *  0.698824 *  -1.09800    1.000000    
      8 O     c    0.587385 *  0.537930 *  0.551215 *  -1.09800    1.000000    
      9 O     c    0.684840 *  0.825831 *  0.154380 *  -1.09800    1.000000    
     10 O     c    0.382154 *  0.626109 *  0.282395 *  -1.09800    1.000000    
     11 O     c    0.870308 *  0.060749 *  0.724032 *  -1.09800    1.000000    
     12 O     c    0.511981 *  0.348642 *  0.914495 *  -1.09800    1.000000    
--------------------------------------------------------------------------------



********************************************************************************
*  General input information                                                   *
********************************************************************************

  Species output for all configurations : 

--------------------------------------------------------------------------------
  Species    Type    Atomic    Atomic    Charge       Radii (Angs)     Library
                     Number     Mass       (e)     Cova   Ionic  VDW   Symbol
--------------------------------------------------------------------------------
    Ti       Core       22      47.88   2.196000   1.470  0.000  2.190          
    O        Core        8      16.00  -1.098000   0.730  0.000  1.360          
--------------------------------------------------------------------------------


  Lattice summation method               =    Ewald          (3-D)
                                         =    Parry          (2-D)
                                         =    Saunders et al (1-D)
  Accuracy factor for lattice sums       =   12.000


  Analytic derivatives to be used

  Time limit = Infinity

  Maximum range for interatomic potentials =    100000.000000 Angstroms

  General interatomic potentials :

--------------------------------------------------------------------------------
Atom  Types   Potential      Parameter       Value         Units   Cutoffs(Ang)
  1     2                                                            Min /  Max 
--------------------------------------------------------------------------------
Ti   c Ti   c Buckingham    Buckingham A     31120.100    eV        0.000 15.000
                            Buckingham rho  0.15400000    Ang       
                            Buckingham C     5.2500000    eV*Ang^6  
--------------------------------------------------------------------------------
O    c O    c Buckingham    Buckingham A     11782.700    eV        0.000 15.000
                            Buckingham rho  0.23400000    Ang       
                            Buckingham C     30.220000    eV*Ang^6  
--------------------------------------------------------------------------------
O    c Ti   c Buckingham    Buckingham A     16957.500    eV        0.000 15.000
                            Buckingham rho  0.19400000    Ang       
                            Buckingham C     12.590000    eV*Ang^6  
--------------------------------------------------------------------------------
Ti   c Ti   c Lennard       Lennard-Jones A  1.0000000    eV*Ang^m  0.000 15.000
                            Lennard-Jones B  0.0000000    eV*Ang^n  
                            Exponent m        12          None
                            Exponent n         6          None
--------------------------------------------------------------------------------
O    c O    c Lennard       Lennard-Jones A  1.0000000    eV*Ang^m  0.000 15.000
                            Lennard-Jones B  0.0000000    eV*Ang^n  
                            Exponent m        12          None
                            Exponent n         6          None
--------------------------------------------------------------------------------
O    c Ti   c Lennard       Lennard-Jones A  1.0000000    eV*Ang^m  0.000 15.000
                            Lennard-Jones B  0.0000000    eV*Ang^n  
                            Exponent m        12          None
                            Exponent n         6          None
--------------------------------------------------------------------------------

********************************************************************************
*  Output for configuration   1                                                *
********************************************************************************


  Components of energy : 

--------------------------------------------------------------------------------
  Interatomic potentials     =          99.99162261 eV    
  Monopole - monopole (real) =         -55.09416844 eV    
  Monopole - monopole (recip)=         -94.71465016 eV    
  Monopole - monopole (total)=        -149.80881859 eV    
--------------------------------------------------------------------------------
  Total lattice energy       =         -49.81719599 eV    
--------------------------------------------------------------------------------
  Total lattice energy       =           -4806.5979 kJ/(mole unit cells)
--------------------------------------------------------------------------------


  Number of variables =       39

  Maximum number of calculations  =          1000
  Maximum Hessian update interval =            10
  Maximum step size               =   1.000000000
  Maximum parameter tolerance     =   0.000010000
  Maximum function  tolerance     =   0.000010000
  Maximum gradient  tolerance     =   0.001000000
  Maximum gradient  component     =   0.010000000

  Symmetry not applied to optimisation

  Cell parameters to be optimised using strains

  Conjugate gradient optimiser to be used

  Lower half triangular hessian to be used

  Minimiser to switch to BFGS with exact hessian
  When gradient norm is less than     0.500000

  Start of bulk optimisation :

  Cycle:      0 Energy:       -49.817196  Gnorm:     54.468319  CPU:    0.031
  Cycle:      1 Energy:      -103.701361  Gnorm:     12.552672  CPU:    0.085
  Cycle:      2 Energy:      -124.973881  Gnorm:      7.093346  CPU:    0.138
  Cycle:      3 Energy:      -134.263130  Gnorm:      3.192723  CPU:    0.193
  Cycle:      4 Energy:      -137.443166  Gnorm:      2.313164  CPU:    0.237
  Cycle:      5 Energy:      -138.883175  Gnorm:      1.741176  CPU:    0.280
  Cycle:      6 Energy:      -140.017959  Gnorm:      1.506212  CPU:    0.326
  Cycle:      7 Energy:      -141.283585  Gnorm:      1.177942  CPU:    0.369
  Cycle:      8 Energy:      -142.237928  Gnorm:      1.243863  CPU:    0.411
  Cycle:      9 Energy:      -143.303196  Gnorm:      1.289890  CPU:    0.456
  Cycle:     10 Energy:      -143.984886  Gnorm:      0.958174  CPU:    0.490
  Cycle:     11 Energy:      -145.117425  Gnorm:      1.354659  CPU:    0.534
  Cycle:     12 Energy:      -146.101765  Gnorm:      1.393765  CPU:    0.571
  Cycle:     13 Energy:      -147.215343  Gnorm:      1.201092  CPU:    0.614
  Cycle:     14 Energy:      -148.357492  Gnorm:      0.960298  CPU:    0.658
  Cycle:     15 Energy:      -149.611730  Gnorm:      0.933967  CPU:    0.705
  Cycle:     16 Energy:      -150.519793  Gnorm:      1.121226  CPU:    0.743
  Cycle:     17 Energy:      -150.788899  Gnorm:      0.955574  CPU:    0.781
  Cycle:     18 Energy:      -151.610815  Gnorm:      0.477983  CPU:    0.820
  ** Hessian calculated **
  Cycle:     19 Energy:      -152.070739  Gnorm:      0.453001  CPU:    0.899
  Cycle:     20 Energy:      -152.467175  Gnorm:      0.527275  CPU:    0.938
  Cycle:     21 Energy:      -152.957211  Gnorm:      0.575765  CPU:    0.970
  Cycle:     22 Energy:      -153.601905  Gnorm:      0.696406  CPU:    1.007
  Cycle:     23 Energy:      -154.505606  Gnorm:      0.733965  CPU:    1.043
  Cycle:     24 Energy:      -154.969696  Gnorm:      0.541322  CPU:    1.070
  Cycle:     25 Energy:      -155.353934  Gnorm:      0.517457  CPU:    1.101
  Cycle:     26 Energy:      -155.681044  Gnorm:      0.470285  CPU:    1.126
  Cycle:     27 Energy:      -155.891750  Gnorm:      0.360095  CPU:    1.150
  Cycle:     28 Energy:      -156.047568  Gnorm:      0.276726  CPU:    1.183
  ** Hessian calculated **
  Cycle:     29 Energy:      -156.370908  Gnorm:      0.352983  CPU:    1.264
  Cycle:     30 Energy:      -156.545152  Gnorm:      0.529126  CPU:    1.291
  Cycle:     31 Energy:      -156.684453  Gnorm:      0.180380  CPU:    1.316
  Cycle:     32 Energy:      -156.772999  Gnorm:      0.308182  CPU:    1.340
  Cycle:     33 Energy:      -156.820839  Gnorm:      0.167461  CPU:    1.364
  Cycle:     34 Energy:      -156.872446  Gnorm:      0.225947  CPU:    1.394
  Cycle:     35 Energy:      -156.911651  Gnorm:      0.108524  CPU:    1.421
  Cycle:     36 Energy:      -156.924151  Gnorm:      0.078838  CPU:    1.446
  Cycle:     37 Energy:      -156.930050  Gnorm:      0.058546  CPU:    1.470
  Cycle:     38 Energy:      -156.932968  Gnorm:      0.036280  CPU:    1.494
  ** Hessian calculated **
  Cycle:     39 Energy:      -156.939198  Gnorm:      0.021736  CPU:    1.566
  Cycle:     40 Energy:      -156.939497  Gnorm:      0.002669  CPU:    1.596
  Cycle:     41 Energy:      -156.939527  Gnorm:      0.000363  CPU:    1.620


  **** Optimisation achieved ****


  Final energy =    -156.93952681 eV      
  Final Gnorm  =       0.00006129

  Components of energy : 

--------------------------------------------------------------------------------
  Interatomic potentials     =          12.41644109 eV    
  Monopole - monopole (real) =         -67.18339977 eV    
  Monopole - monopole (recip)=        -102.17256812 eV    
  Monopole - monopole (total)=        -169.35596789 eV    
--------------------------------------------------------------------------------
  Total lattice energy       =        -156.93952681 eV    
--------------------------------------------------------------------------------
  Total lattice energy       =          -15142.2653 kJ/(mole unit cells)
--------------------------------------------------------------------------------

  Final fractional coordinates of atoms :

--------------------------------------------------------------------------------
   No.  Atomic        x           y          z          Radius
        Label       (Frac)      (Frac)     (Frac)       (Angs) 
--------------------------------------------------------------------------------
     1  Ti    c     0.249350    0.125039    0.524478    0.000000
     2  Ti    c     0.489291    0.604924    0.024497    0.000000
     3  Ti    c     0.769722    0.165782    0.024489    0.000000
     4  Ti    c     0.009662    0.645667    0.524502    0.000000
     5  O     c     0.340124    0.306588    0.024485    0.000000
     6  O     c     0.129507    0.885356    0.024521    0.000000
     7  O     c     0.918890    0.464119    0.024495    0.000000
     8  O     c     0.694543    0.610863    0.524496    0.000000
     9  O     c     0.629509    0.885353    0.024492    0.000000
    10  O     c     0.289980    0.610868    0.524498    0.000000
    11  O     c     0.969034    0.159842    0.524488    0.000000
    12  O     c     0.564469    0.159841    0.524490    0.000000
--------------------------------------------------------------------------------

  Final Cartesian lattice vectors (Angstroms) :

        6.206626   -1.153668   -0.531683
       -1.970934    6.939965   -0.322824
        0.297514    0.223447    2.988119


  Final cell parameters and derivatives :

--------------------------------------------------------------------------------
       a            6.335285 Angstrom     dE/de1(xx)    -0.000332 eV/strain
       b            7.221628 Angstrom     dE/de2(yy)    -0.000977 eV/strain
       c            3.011195 Angstrom     dE/de3(zz)    -0.000337 eV/strain
       alpha       90.000792 Degrees      dE/de4(yz)    -0.000211 eV/strain
       beta        89.999877 Degrees      dE/de5(xz)     0.000110 eV/strain
       gamma      116.016270 Degrees      dE/de6(xy)     0.000011 eV/strain
--------------------------------------------------------------------------------

  Primitive cell volume =           123.805583 Angs**3

  Density of cell =      4.285622 g/cm**3

  Non-primitive cell volume =           123.805583 Angs**3


  Final internal derivatives :

--------------------------------------------------------------------------------
   No.  Atomic          a             b             c           Radius
        Label          (eV)          (eV)          (eV)        (eV/Angs)
--------------------------------------------------------------------------------
      1 Ti    c       0.000000      0.000000      0.000000      0.000000
      2 Ti    c      -0.000118      0.001196     -0.000069      0.000000
      3 Ti    c       0.000023     -0.000269      0.000016      0.000000
      4 Ti    c      -0.000077      0.000100      0.000048      0.000000
      5 O     c      -0.000090      0.000206     -0.000047      0.000000
      6 O     c      -0.000151      0.001043      0.000268      0.000000
      7 O     c       0.000150      0.000043     -0.000036      0.000000
      8 O     c      -0.000291      0.000111      0.000009      0.000000
      9 O     c      -0.000084     -0.000903      0.000005      0.000000
     10 O     c       0.000373     -0.000146      0.000146      0.000000
     11 O     c       0.000089     -0.000016     -0.000128      0.000000
     12 O     c       0.000536     -0.000510      0.000011      0.000000
--------------------------------------------------------------------------------
  Maximum abs         0.000536      0.001196      0.000268      0.000000
--------------------------------------------------------------------------------


  Time to end of optimisation =       1.6444 seconds


  Peak dynamic memory used =       1.84 MB 


  Timing analysis for GULP :

--------------------------------------------------------------------------------
  Task / Subroutine                                          Time (Seconds)
--------------------------------------------------------------------------------
  Calculation of reciprocal space energy and derivatives          0.0557
  Calculation of real space energy and derivatives                1.5685
  Calculation and manipulation of Hessian matrix                  0.0003
  Calculation of matrix inversion                                 0.0006
  Global summation overhead                                       0.0003
--------------------------------------------------------------------------------
  Total CPU time                                                  1.6445
--------------------------------------------------------------------------------


  Job Finished at 11:07.51 29th May        2024                               

