********************************************************************************
*                       GENERAL UTILITY LATTICE PROGRAM                        *
*                                 Julian Gale                                  *
*                       Curtin Institute for Computation                       *
*                    School of Molecular and Life Sciences                     *
*                    Curtin University, Western Australia                      *
********************************************************************************
* Version = 6.0.0 * Last modified =  12th July 2021                            *
********************************************************************************
*  optimise     - perform optimisation run                                     *
*  conp         - constant pressure calculation                                *
*  conjugate    - use conjugate gradients minimiser                            *
********************************************************************************

  Job Started  at 11:07.42 29th May        2024                               

  Number of CPUs =     1


  Total number of configurations input =      1

********************************************************************************
*  Input for Configuration =   1                                               *
********************************************************************************

  Formula = Ti4O8                                                       

  Number of irreducible atoms/shells =      12


  Total number atoms/shells =      12

  Dimensionality = 3               :  Bulk   



  Cartesian lattice vectors (Angstroms) :

        5.788595   -0.495950    0.447335
       -1.126577    6.338761   -0.922949
        0.451367   -0.322891    3.782068

  Cell parameters (Angstroms/Degrees):

  a =       5.8270    alpha = 104.0744
  b =       6.5039    beta  =  78.4369
  c =       3.8226    gamma = 105.4216

  Initial cell volume =         134.024851 Angs**3

  Temperature of configuration =   0.00     K 

  Pressure of configuration =         0.000 GPa 

  Fractional coordinates of asymmetric unit :

--------------------------------------------------------------------------------
   No.  Atomic       x           y          z         Charge      Occupancy
        Label      (Frac)      (Frac)     (Frac)        (e)         (Frac)  
--------------------------------------------------------------------------------
      1 Ti    c    0.459881    0.721113    0.353057     2.19600    1.000000    
      2 Ti    c    0.736008 *  0.210128 *  0.118191 *   2.19600    1.000000    
      3 Ti    c    0.955050 *  0.603602 *  0.775127 *   2.19600    1.000000    
      4 Ti    c    0.448882 *  0.315764 *  0.775128 *   2.19600    1.000000    
      5 O     c    0.106255 *  0.424001 *  0.401049 *  -1.09800    1.000000    
      6 O     c    0.353735 *  0.115704 *  0.296694 *  -1.09800    1.000000    
      7 O     c    0.784003 *  0.934978 *  0.215977 *  -1.09800    1.000000    
      8 O     c    0.186970 *  0.626700 *  0.012050 *  -1.09800    1.000000    
      9 O     c    0.598903 *  0.423996 *  0.049223 *  -1.09800    1.000000    
     10 O     c    0.262187 *  0.821932 *  0.961825 *  -1.09800    1.000000    
     11 O     c    0.955049 *  0.027929 *  0.775131 *  -1.09800    1.000000    
     12 O     c    0.635575 *  0.821932 *  0.556800 *  -1.09800    1.000000    
--------------------------------------------------------------------------------



********************************************************************************
*  General input information                                                   *
********************************************************************************

  Species output for all configurations : 

--------------------------------------------------------------------------------
  Species    Type    Atomic    Atomic    Charge       Radii (Angs)     Library
                     Number     Mass       (e)     Cova   Ionic  VDW   Symbol
--------------------------------------------------------------------------------
    Ti       Core       22      47.88   2.196000   1.470  0.000  2.190          
    O        Core        8      16.00  -1.098000   0.730  0.000  1.360          
--------------------------------------------------------------------------------


  Lattice summation method               =    Ewald          (3-D)
                                         =    Parry          (2-D)
                                         =    Saunders et al (1-D)
  Accuracy factor for lattice sums       =   12.000


  Analytic derivatives to be used

  Time limit = Infinity

  Maximum range for interatomic potentials =    100000.000000 Angstroms

  General interatomic potentials :

--------------------------------------------------------------------------------
Atom  Types   Potential      Parameter       Value         Units   Cutoffs(Ang)
  1     2                                                            Min /  Max 
--------------------------------------------------------------------------------
Ti   c Ti   c Buckingham    Buckingham A     31120.100    eV        0.000 15.000
                            Buckingham rho  0.15400000    Ang       
                            Buckingham C     5.2500000    eV*Ang^6  
--------------------------------------------------------------------------------
O    c O    c Buckingham    Buckingham A     11782.700    eV        0.000 15.000
                            Buckingham rho  0.23400000    Ang       
                            Buckingham C     30.220000    eV*Ang^6  
--------------------------------------------------------------------------------
O    c Ti   c Buckingham    Buckingham A     16957.500    eV        0.000 15.000
                            Buckingham rho  0.19400000    Ang       
                            Buckingham C     12.590000    eV*Ang^6  
--------------------------------------------------------------------------------
Ti   c Ti   c Lennard       Lennard-Jones A  1.0000000    eV*Ang^m  0.000 15.000
                            Lennard-Jones B  0.0000000    eV*Ang^n  
                            Exponent m        12          None
                            Exponent n         6          None
--------------------------------------------------------------------------------
O    c O    c Lennard       Lennard-Jones A  1.0000000    eV*Ang^m  0.000 15.000
                            Lennard-Jones B  0.0000000    eV*Ang^n  
                            Exponent m        12          None
                            Exponent n         6          None
--------------------------------------------------------------------------------
O    c Ti   c Lennard       Lennard-Jones A  1.0000000    eV*Ang^m  0.000 15.000
                            Lennard-Jones B  0.0000000    eV*Ang^n  
                            Exponent m        12          None
                            Exponent n         6          None
--------------------------------------------------------------------------------

********************************************************************************
*  Output for configuration   1                                                *
********************************************************************************


  Components of energy : 

--------------------------------------------------------------------------------
  Interatomic potentials     =          87.51147936 eV    
  Monopole - monopole (real) =         -45.87352923 eV    
  Monopole - monopole (recip)=         -91.79686623 eV    
  Monopole - monopole (total)=        -137.67039546 eV    
--------------------------------------------------------------------------------
  Total lattice energy       =         -50.15891609 eV    
--------------------------------------------------------------------------------
  Total lattice energy       =           -4839.5687 kJ/(mole unit cells)
--------------------------------------------------------------------------------


  Number of variables =       39

  Maximum number of calculations  =          1000
  Maximum Hessian update interval =            10
  Maximum step size               =   1.000000000
  Maximum parameter tolerance     =   0.000010000
  Maximum function  tolerance     =   0.000010000
  Maximum gradient  tolerance     =   0.001000000
  Maximum gradient  component     =   0.010000000

  Symmetry not applied to optimisation

  Cell parameters to be optimised using strains

  Conjugate gradient optimiser to be used

  Lower half triangular hessian to be used

  Minimiser to switch to BFGS with exact hessian
  When gradient norm is less than     0.500000

  Start of bulk optimisation :

  Cycle:      0 Energy:       -50.158916  Gnorm:     44.927321  CPU:    0.029
  Cycle:      1 Energy:      -103.215232  Gnorm:     10.717466  CPU:    0.075
  Cycle:      2 Energy:      -129.718764  Gnorm:      5.993421  CPU:    0.142
  Cycle:      3 Energy:      -142.101838  Gnorm:      2.492875  CPU:    0.210
  Cycle:      4 Energy:      -144.837625  Gnorm:      1.523316  CPU:    0.245
  Cycle:      5 Energy:      -147.993661  Gnorm:      1.476485  CPU:    0.288
  Cycle:      6 Energy:      -150.225508  Gnorm:      1.461808  CPU:    0.327
  Cycle:      7 Energy:      -151.506474  Gnorm:      1.445389  CPU:    0.365
  Cycle:      8 Energy:      -152.617653  Gnorm:      1.121191  CPU:    0.407
  Cycle:      9 Energy:      -153.744385  Gnorm:      0.790390  CPU:    0.454
  Cycle:     10 Energy:      -154.176445  Gnorm:      0.553010  CPU:    0.508
  Cycle:     11 Energy:      -154.873275  Gnorm:      0.639882  CPU:    0.620
  Cycle:     12 Energy:      -155.544709  Gnorm:      0.570462  CPU:    0.652
  Cycle:     13 Energy:      -156.015762  Gnorm:      0.462402  CPU:    0.699
  ** Hessian calculated **
  Cycle:     14 Energy:      -156.241304  Gnorm:      0.341909  CPU:    0.781
  Cycle:     15 Energy:      -156.433416  Gnorm:      0.265247  CPU:    0.819
  Cycle:     16 Energy:      -156.534875  Gnorm:      0.274700  CPU:    0.850
  Cycle:     17 Energy:      -156.759994  Gnorm:      0.352041  CPU:    0.888
  Cycle:     18 Energy:      -156.978721  Gnorm:      0.310495  CPU:    0.919
  Cycle:     19 Energy:      -157.136683  Gnorm:      0.195727  CPU:    0.953
  Cycle:     20 Energy:      -157.236054  Gnorm:      0.207600  CPU:    0.992
  Cycle:     21 Energy:      -157.313343  Gnorm:      0.186008  CPU:    1.024
  Cycle:     22 Energy:      -157.397506  Gnorm:      0.235852  CPU:    1.066
  Cycle:     23 Energy:      -157.476910  Gnorm:      0.198452  CPU:    1.099
  ** Hessian calculated **
  Cycle:     24 Energy:      -157.580018  Gnorm:      0.218030  CPU:    1.179
  Cycle:     25 Energy:      -157.601704  Gnorm:      0.086014  CPU:    1.212
  Cycle:     26 Energy:      -157.605980  Gnorm:      0.078870  CPU:    1.269
  Cycle:     27 Energy:      -157.606929  Gnorm:      0.096860  CPU:    1.301
  ** Hessian calculated **
  Cycle:     28 Energy:      -157.622191  Gnorm:      0.072885  CPU:    1.388
  Cycle:     29 Energy:      -157.630393  Gnorm:      0.071727  CPU:    1.428
  Cycle:     30 Energy:      -157.639018  Gnorm:      0.064300  CPU:    1.467
  Cycle:     31 Energy:      -157.647445  Gnorm:      0.074569  CPU:    1.508
  Cycle:     32 Energy:      -157.669992  Gnorm:      0.114608  CPU:    1.558
  Cycle:     33 Energy:      -157.695051  Gnorm:      0.121631  CPU:    1.598
  Cycle:     34 Energy:      -157.737909  Gnorm:      0.140408  CPU:    1.632
  Cycle:     35 Energy:      -157.772925  Gnorm:      0.151947  CPU:    1.675
  Cycle:     36 Energy:      -157.804868  Gnorm:      0.143749  CPU:    1.707
  Cycle:     37 Energy:      -157.857081  Gnorm:      0.169746  CPU:    1.748
  ** Hessian calculated **
  Cycle:     38 Energy:      -158.041578  Gnorm:      0.115155  CPU:    1.835
  Cycle:     39 Energy:      -158.054221  Gnorm:      0.070297  CPU:    1.869
  Cycle:     40 Energy:      -158.068263  Gnorm:      0.019717  CPU:    1.904
  Cycle:     41 Energy:      -158.069306  Gnorm:      0.004211  CPU:    1.937
  Cycle:     42 Energy:      -158.069356  Gnorm:      0.001461  CPU:    1.977


  **** Optimisation achieved ****


  Final energy =    -158.06936046 eV      
  Final Gnorm  =       0.00034614

  Components of energy : 

--------------------------------------------------------------------------------
  Interatomic potentials     =          11.93851640 eV    
  Monopole - monopole (real) =         -65.75564822 eV    
  Monopole - monopole (recip)=        -104.25222864 eV    
  Monopole - monopole (total)=        -170.00787686 eV    
--------------------------------------------------------------------------------
  Total lattice energy       =        -158.06936046 eV    
--------------------------------------------------------------------------------
  Total lattice energy       =          -15251.2770 kJ/(mole unit cells)
--------------------------------------------------------------------------------

  Final fractional coordinates of atoms :

--------------------------------------------------------------------------------
   No.  Atomic        x           y          z          Radius
        Label       (Frac)      (Frac)     (Frac)       (Angs) 
--------------------------------------------------------------------------------
     1  Ti    c     0.459881    0.721113    0.353057    0.000000
     2  Ti    c     0.646304    0.093951    0.039461    0.000000
     3  Ti    c     0.896301    0.593950    0.789469    0.000000
     4  Ti    c     0.209881    0.221096    0.603036    0.000000
     5  O     c     0.947388    0.321604    0.413032    0.000000
     6  O     c     0.355788    0.993440    0.301954    0.000000
     7  O     c     0.750381    0.821601    0.090526    0.000000
     8  O     c     0.158807    0.493445    0.979460    0.000000
     9  O     c     0.572889    0.321597    0.893524    0.000000
    10  O     c     0.269863    0.821612    0.716041    0.000000
    11  O     c     0.836290    0.993436    0.676443    0.000000
    12  O     c     0.533296    0.493438    0.498929    0.000000
--------------------------------------------------------------------------------

  Final Cartesian lattice vectors (Angstroms) :

        4.700999   -0.937207   -0.054406
       -1.308152    5.790949   -1.589229
       -0.085185   -0.702185    4.741353


  Final cell parameters and derivatives :

--------------------------------------------------------------------------------
       a            4.793820 Angstrom     dE/de1(xx)    -0.001002 eV/strain
       b            6.145893 Angstrom     dE/de2(yy)    -0.001456 eV/strain
       c            4.793823 Angstrom     dE/de3(zz)    -0.000704 eV/strain
       alpha      112.953798 Degrees      dE/de4(yz)     0.000969 eV/strain
       beta        90.000789 Degrees      dE/de5(xz)    -0.001174 eV/strain
       gamma      112.954878 Degrees      dE/de6(xy)    -0.000357 eV/strain
--------------------------------------------------------------------------------

  Primitive cell volume =           117.812369 Angs**3

  Density of cell =      4.503635 g/cm**3

  Non-primitive cell volume =           117.812369 Angs**3


  Final internal derivatives :

--------------------------------------------------------------------------------
   No.  Atomic          a             b             c           Radius
        Label          (eV)          (eV)          (eV)        (eV/Angs)
--------------------------------------------------------------------------------
      1 Ti    c       0.000000      0.000000      0.000000      0.000000
      2 Ti    c       0.000017      0.001654     -0.001238      0.000000
      3 Ti    c      -0.000840      0.001204      0.004053      0.000000
      4 Ti    c       0.002593     -0.002793      0.000900      0.000000
      5 O     c       0.002368     -0.001838      0.000499      0.000000
      6 O     c      -0.000887     -0.000596      0.001198      0.000000
      7 O     c       0.002229     -0.000209     -0.003204      0.000000
      8 O     c      -0.001633      0.002565     -0.003069      0.000000
      9 O     c       0.001719     -0.001688     -0.001057      0.000000
     10 O     c      -0.001430      0.001338      0.000500      0.000000
     11 O     c      -0.002571     -0.001545     -0.002899      0.000000
     12 O     c      -0.004277      0.004291     -0.005209      0.000000
--------------------------------------------------------------------------------
  Maximum abs         0.004277      0.004291      0.005209      0.000000
--------------------------------------------------------------------------------


  Time to end of optimisation =       2.0103 seconds


  Peak dynamic memory used =       1.84 MB 


  Timing analysis for GULP :

--------------------------------------------------------------------------------
  Task / Subroutine                                          Time (Seconds)
--------------------------------------------------------------------------------
  Calculation of reciprocal space energy and derivatives          0.0621
  Calculation of real space energy and derivatives                1.9277
  Calculation and manipulation of Hessian matrix                  0.0005
  Calculation of matrix inversion                                 0.0009
  Global summation overhead                                       0.0003
--------------------------------------------------------------------------------
  Total CPU time                                                  2.0103
--------------------------------------------------------------------------------


  Job Finished at 11:07.44 29th May        2024                               

