********************************************************************************
*                       GENERAL UTILITY LATTICE PROGRAM                        *
*                                 Julian Gale                                  *
*                       Curtin Institute for Computation                       *
*                    School of Molecular and Life Sciences                     *
*                    Curtin University, Western Australia                      *
********************************************************************************
* Version = 6.0.0 * Last modified =  12th July 2021                            *
********************************************************************************
*  optimise     - perform optimisation run                                     *
*  conp         - constant pressure calculation                                *
*  conjugate    - use conjugate gradients minimiser                            *
********************************************************************************

  Job Started  at 11:08.02 29th May        2024                               

  Number of CPUs =     1


  Total number of configurations input =      1

********************************************************************************
*  Input for Configuration =   1                                               *
********************************************************************************

  Formula = Ti4O8                                                       

  Number of irreducible atoms/shells =      12


  Total number atoms/shells =      12

  Dimensionality = 3               :  Bulk   



  Cartesian lattice vectors (Angstroms) :

        6.636791    1.410589    1.023119
        1.602276    4.832172   -0.623827
        0.150975    0.139018    4.498518

  Cell parameters (Angstroms/Degrees):

  a =       6.8617    alpha =  94.7003
  b =       5.1290    beta  =  79.1801
  c =       4.5032    gamma =  61.4649

  Initial cell volume =         134.024851 Angs**3

  Temperature of configuration =   0.00     K 

  Pressure of configuration =         0.000 GPa 

  Fractional coordinates of asymmetric unit :

--------------------------------------------------------------------------------
   No.  Atomic       x           y          z         Charge      Occupancy
        Label      (Frac)      (Frac)     (Frac)        (e)         (Frac)  
--------------------------------------------------------------------------------
      1 Ti    c    0.054764    0.972624    0.382987     2.19600    1.000000    
      2 Ti    c    0.566404 *  0.716799 *  0.404510 *   2.19600    1.000000    
      3 Ti    c    0.621265 *  0.621265 *  0.042517 *   2.19600    1.000000    
      4 Ti    c    0.975049 *  0.482724 *  0.042517 *   2.19600    1.000000    
      5 O     c    0.204894 *  0.364473 *  0.232870 *  -1.09800    1.000000    
      6 O     c    0.529303 *  0.052763 *  0.441610 *  -1.09800    1.000000    
      7 O     c    0.372842 *  0.813594 *  0.064975 *  -1.09800    1.000000    
      8 O     c    0.529307 *  0.417937 *  0.441604 *  -1.09800    1.000000    
      9 O     c    0.088185 *  0.088185 *  0.766072 *  -1.09800    1.000000    
     10 O     c    0.797407 *  0.191861 *  0.770083 *  -1.09800    1.000000    
     11 O     c    0.445124 *  0.050670 *  0.770083 *  -1.09800    1.000000    
     12 O     c    0.267481 *  0.759806 *  0.042517 *  -1.09800    1.000000    
--------------------------------------------------------------------------------



********************************************************************************
*  General input information                                                   *
********************************************************************************

  Species output for all configurations : 

--------------------------------------------------------------------------------
  Species    Type    Atomic    Atomic    Charge       Radii (Angs)     Library
                     Number     Mass       (e)     Cova   Ionic  VDW   Symbol
--------------------------------------------------------------------------------
    Ti       Core       22      47.88   2.196000   1.470  0.000  2.190          
    O        Core        8      16.00  -1.098000   0.730  0.000  1.360          
--------------------------------------------------------------------------------


  Lattice summation method               =    Ewald          (3-D)
                                         =    Parry          (2-D)
                                         =    Saunders et al (1-D)
  Accuracy factor for lattice sums       =   12.000


  Analytic derivatives to be used

  Time limit = Infinity

  Maximum range for interatomic potentials =    100000.000000 Angstroms

  General interatomic potentials :

--------------------------------------------------------------------------------
Atom  Types   Potential      Parameter       Value         Units   Cutoffs(Ang)
  1     2                                                            Min /  Max 
--------------------------------------------------------------------------------
Ti   c Ti   c Buckingham    Buckingham A     31120.100    eV        0.000 15.000
                            Buckingham rho  0.15400000    Ang       
                            Buckingham C     5.2500000    eV*Ang^6  
--------------------------------------------------------------------------------
O    c O    c Buckingham    Buckingham A     11782.700    eV        0.000 15.000
                            Buckingham rho  0.23400000    Ang       
                            Buckingham C     30.220000    eV*Ang^6  
--------------------------------------------------------------------------------
O    c Ti   c Buckingham    Buckingham A     16957.500    eV        0.000 15.000
                            Buckingham rho  0.19400000    Ang       
                            Buckingham C     12.590000    eV*Ang^6  
--------------------------------------------------------------------------------
Ti   c Ti   c Lennard       Lennard-Jones A  1.0000000    eV*Ang^m  0.000 15.000
                            Lennard-Jones B  0.0000000    eV*Ang^n  
                            Exponent m        12          None
                            Exponent n         6          None
--------------------------------------------------------------------------------
O    c O    c Lennard       Lennard-Jones A  1.0000000    eV*Ang^m  0.000 15.000
                            Lennard-Jones B  0.0000000    eV*Ang^n  
                            Exponent m        12          None
                            Exponent n         6          None
--------------------------------------------------------------------------------
O    c Ti   c Lennard       Lennard-Jones A  1.0000000    eV*Ang^m  0.000 15.000
                            Lennard-Jones B  0.0000000    eV*Ang^n  
                            Exponent m        12          None
                            Exponent n         6          None
--------------------------------------------------------------------------------

********************************************************************************
*  Output for configuration   1                                                *
********************************************************************************


  Components of energy : 

--------------------------------------------------------------------------------
  Interatomic potentials     =         240.46854560 eV    
  Monopole - monopole (real) =         -16.68262145 eV    
  Monopole - monopole (recip)=         -88.05878658 eV    
  Monopole - monopole (total)=        -104.74140803 eV    
--------------------------------------------------------------------------------
  Total lattice energy       =         135.72713757 eV    
--------------------------------------------------------------------------------
  Total lattice energy       =           13095.5940 kJ/(mole unit cells)
--------------------------------------------------------------------------------


  Number of variables =       39

  Maximum number of calculations  =          1000
  Maximum Hessian update interval =            10
  Maximum step size               =   1.000000000
  Maximum parameter tolerance     =   0.000010000
  Maximum function  tolerance     =   0.000010000
  Maximum gradient  tolerance     =   0.001000000
  Maximum gradient  component     =   0.010000000

  Symmetry not applied to optimisation

  Cell parameters to be optimised using strains

  Conjugate gradient optimiser to be used

  Lower half triangular hessian to be used

  Minimiser to switch to BFGS with exact hessian
  When gradient norm is less than     0.500000

  Start of bulk optimisation :

  Cycle:      0 Energy:       135.727138  Gnorm:    202.645198  CPU:    0.026
  Cycle:      1 Energy:       -48.828213  Gnorm:     20.361554  CPU:    0.069
  Cycle:      2 Energy:       -80.717090  Gnorm:     11.083313  CPU:    0.128
  Cycle:      3 Energy:      -109.829121  Gnorm:      9.524843  CPU:    0.173
  Cycle:      4 Energy:      -132.506086  Gnorm:      3.810976  CPU:    0.231
  Cycle:      5 Energy:      -139.309228  Gnorm:      2.348915  CPU:    0.272
  Cycle:      6 Energy:      -143.432677  Gnorm:      1.623306  CPU:    0.313
  Cycle:      7 Energy:      -145.528599  Gnorm:      1.679789  CPU:    0.355
  Cycle:      8 Energy:      -146.938199  Gnorm:      1.697447  CPU:    0.389
  Cycle:      9 Energy:      -148.264568  Gnorm:      1.208127  CPU:    0.433
  Cycle:     10 Energy:      -148.697514  Gnorm:      0.648648  CPU:    0.468
  Cycle:     11 Energy:      -149.164089  Gnorm:      0.715572  CPU:    0.512
  Cycle:     12 Energy:      -149.480625  Gnorm:      0.861885  CPU:    0.549
  Cycle:     13 Energy:      -150.219200  Gnorm:      0.704424  CPU:    0.594
  Cycle:     14 Energy:      -150.958850  Gnorm:      0.941458  CPU:    0.640
  Cycle:     15 Energy:      -151.309161  Gnorm:      0.747689  CPU:    0.686
  Cycle:     16 Energy:      -151.748079  Gnorm:      1.014589  CPU:    0.732
  Cycle:     17 Energy:      -152.276232  Gnorm:      0.722363  CPU:    0.778
  Cycle:     18 Energy:      -152.635243  Gnorm:      0.722584  CPU:    0.824
  Cycle:     19 Energy:      -152.998750  Gnorm:      0.648461  CPU:    0.871
  Cycle:     20 Energy:      -153.179552  Gnorm:      0.380128  CPU:    0.908
  ** Hessian calculated **
  Cycle:     21 Energy:      -153.389830  Gnorm:      0.503268  CPU:    0.990
  Cycle:     22 Energy:      -153.592412  Gnorm:      0.407364  CPU:    1.035
  Cycle:     23 Energy:      -153.796813  Gnorm:      0.417031  CPU:    1.079
  Cycle:     24 Energy:      -153.969355  Gnorm:      0.387595  CPU:    1.116
  Cycle:     25 Energy:      -154.135303  Gnorm:      0.407796  CPU:    1.152
  Cycle:     26 Energy:      -154.207748  Gnorm:      0.237752  CPU:    1.188
  Cycle:     27 Energy:      -154.280420  Gnorm:      0.210296  CPU:    1.233
  Cycle:     28 Energy:      -154.329607  Gnorm:      0.157279  CPU:    1.269
  Cycle:     29 Energy:      -154.374003  Gnorm:      0.150268  CPU:    1.305
  Cycle:     30 Energy:      -154.393948  Gnorm:      0.123118  CPU:    1.342
  ** Hessian calculated **
  Cycle:     31 Energy:      -154.513432  Gnorm:      0.113451  CPU:    1.438
  Cycle:     32 Energy:      -154.539308  Gnorm:      0.147175  CPU:    1.474
  Cycle:     33 Energy:      -154.576168  Gnorm:      0.224914  CPU:    1.519
  Cycle:     34 Energy:      -154.647331  Gnorm:      0.211195  CPU:    1.564
  Cycle:     35 Energy:      -154.878388  Gnorm:      0.505466  CPU:    1.619
  Cycle:     36 Energy:      -154.954148  Gnorm:      0.559528  CPU:    1.664
  Cycle:     37 Energy:      -155.324936  Gnorm:      0.479271  CPU:    1.713
  Cycle:     38 Energy:      -155.441331  Gnorm:      0.465060  CPU:    1.762
  Cycle:     39 Energy:      -155.503067  Gnorm:      0.418189  CPU:    1.803
  Cycle:     40 Energy:      -155.674973  Gnorm:      0.474000  CPU:    1.852
  ** Hessian calculated **
  Cycle:     41 Energy:      -156.056584  Gnorm:      0.220034  CPU:    1.935
  Cycle:     42 Energy:      -156.095436  Gnorm:      0.047121  CPU:    1.985
  Cycle:     43 Energy:      -156.099719  Gnorm:      0.038480  CPU:    2.025
  Cycle:     44 Energy:      -156.101125  Gnorm:      0.015437  CPU:    2.075
  Cycle:     45 Energy:      -156.101482  Gnorm:      0.006368  CPU:    2.124
  Cycle:     46 Energy:      -156.101521  Gnorm:      0.003565  CPU:    2.174
  Cycle:     47 Energy:      -156.101534  Gnorm:      0.000810  CPU:    2.214


  **** Optimisation achieved ****


  Final energy =    -156.10153535 eV      
  Final Gnorm  =       0.00026616

  Components of energy : 

--------------------------------------------------------------------------------
  Interatomic potentials     =          12.58277410 eV    
  Monopole - monopole (real) =         -69.84216595 eV    
  Monopole - monopole (recip)=         -98.84214350 eV    
  Monopole - monopole (total)=        -168.68430945 eV    
--------------------------------------------------------------------------------
  Total lattice energy       =        -156.10153535 eV    
--------------------------------------------------------------------------------
  Total lattice energy       =          -15061.4119 kJ/(mole unit cells)
--------------------------------------------------------------------------------

  Final fractional coordinates of atoms :

--------------------------------------------------------------------------------
   No.  Atomic        x           y          z          Radius
        Label       (Frac)      (Frac)     (Frac)       (Angs) 
--------------------------------------------------------------------------------
     1  Ti    c     0.054764    0.972624    0.382987    0.000000
     2  Ti    c     0.434402    0.868320    0.606856    0.000000
     3  Ti    c     0.635127    0.138420    0.106154    0.000000
     4  Ti    c     0.921312    0.426732    0.054316    0.000000
     5  O     c     0.202287    0.002368    0.014280    0.000000
     6  O     c     0.595400    0.836054    0.198552    0.000000
     7  O     c     0.361222    0.606729    0.372251    0.000000
     8  O     c     0.759572    0.410668    0.417533    0.000000
     9  O     c     0.123563    0.243976    0.622952    0.000000
    10  O     c     0.857671    0.140488    0.831225    0.000000
    11  O     c     0.525002    0.097245    0.794821    0.000000
    12  O     c     0.938785    0.780419    0.180702    0.000000
--------------------------------------------------------------------------------

  Final Cartesian lattice vectors (Angstroms) :

        7.133055    1.922480    1.220535
        2.114102    4.752161   -1.057356
        0.308463   -0.291666    4.765305


  Final cell parameters and derivatives :

--------------------------------------------------------------------------------
       a            7.487730 Angstrom     dE/de1(xx)     0.000074 eV/strain
       b            5.307586 Angstrom     dE/de2(yy)    -0.000431 eV/strain
       c            4.784177 Angstrom     dE/de3(zz)     0.000164 eV/strain
       alpha      103.140130 Degrees      dE/de4(yz)    -0.000154 eV/strain
       beta        77.987188 Degrees      dE/de5(xz)     0.000034 eV/strain
       gamma       54.770069 Degrees      dE/de6(xy)    -0.000156 eV/strain
--------------------------------------------------------------------------------

  Primitive cell volume =           136.795282 Angs**3

  Density of cell =      3.878671 g/cm**3

  Non-primitive cell volume =           136.795282 Angs**3


  Final internal derivatives :

--------------------------------------------------------------------------------
   No.  Atomic          a             b             c           Radius
        Label          (eV)          (eV)          (eV)        (eV/Angs)
--------------------------------------------------------------------------------
      1 Ti    c       0.000000      0.000000      0.000000      0.000000
      2 Ti    c      -0.002847     -0.000296      0.001275      0.000000
      3 Ti    c       0.001887      0.000938      0.001511      0.000000
      4 Ti    c       0.000678      0.000696     -0.000601      0.000000
      5 O     c       0.000540     -0.001725      0.000954      0.000000
      6 O     c      -0.001308      0.001883     -0.003387      0.000000
      7 O     c      -0.001598     -0.000553     -0.000645      0.000000
      8 O     c       0.002545     -0.001646      0.002381      0.000000
      9 O     c      -0.002786     -0.001606      0.000664      0.000000
     10 O     c       0.002155      0.001982     -0.002752      0.000000
     11 O     c      -0.001245     -0.000748     -0.000243      0.000000
     12 O     c       0.004281      0.001761      0.000265      0.000000
--------------------------------------------------------------------------------
  Maximum abs         0.004281      0.001982      0.003387      0.000000
--------------------------------------------------------------------------------


  Time to end of optimisation =       2.2547 seconds


  Peak dynamic memory used =       1.84 MB 


  Timing analysis for GULP :

--------------------------------------------------------------------------------
  Task / Subroutine                                          Time (Seconds)
--------------------------------------------------------------------------------
  Calculation of reciprocal space energy and derivatives          0.0622
  Calculation of real space energy and derivatives                2.1729
  Calculation and manipulation of Hessian matrix                  0.0003
  Calculation of matrix inversion                                 0.0006
  Global summation overhead                                       0.0003
--------------------------------------------------------------------------------
  Total CPU time                                                  2.2548
--------------------------------------------------------------------------------


  Job Finished at 11:08.04 29th May        2024                               

