********************************************************************************
*                       GENERAL UTILITY LATTICE PROGRAM                        *
*                                 Julian Gale                                  *
*                       Curtin Institute for Computation                       *
*                    School of Molecular and Life Sciences                     *
*                    Curtin University, Western Australia                      *
********************************************************************************
* Version = 6.0.0 * Last modified =  12th July 2021                            *
********************************************************************************
*  optimise     - perform optimisation run                                     *
*  conp         - constant pressure calculation                                *
*  conjugate    - use conjugate gradients minimiser                            *
********************************************************************************

  Job Started  at 11:09.20 29th May        2024                               

  Number of CPUs =     1


  Total number of configurations input =      1

********************************************************************************
*  Input for Configuration =   1                                               *
********************************************************************************

  Formula = Ti4O8                                                       

  Number of irreducible atoms/shells =      12


  Total number atoms/shells =      12

  Dimensionality = 3               :  Bulk   



  Cartesian lattice vectors (Angstroms) :

        4.708069    0.488628    0.409431
        0.545463    6.169141    1.113426
        1.028137    1.808695    5.043391

  Cell parameters (Angstroms/Degrees):

  a =       4.7510    alpha =  59.6728
  b =       6.2925    beta  =  72.5117
  c =       5.4557    gamma =  78.3472

  Initial cell volume =         134.024851 Angs**3

  Temperature of configuration =   0.00     K 

  Pressure of configuration =         0.000 GPa 

  Fractional coordinates of asymmetric unit :

--------------------------------------------------------------------------------
   No.  Atomic       x           y          z         Charge      Occupancy
        Label      (Frac)      (Frac)     (Frac)        (e)         (Frac)  
--------------------------------------------------------------------------------
      1 Ti    c    0.000000    0.838622    0.000000     2.19600    1.000000    
      2 Ti    c    0.532846 *  0.305771 *  0.000000 *   2.19600    1.000000    
      3 Ti    c    0.065691 *  0.305772 *  0.532846 *   2.19600    1.000000    
      4 Ti    c    0.532846 *  0.838615 *  0.532846 *   2.19600    1.000000    
      5 O     c    0.399634 *  0.838614 *  0.133214 *  -1.09800    1.000000    
      6 O     c    0.666057 *  0.838614 *  0.932478 *  -1.09800    1.000000    
      7 O     c    0.932479 *  0.305769 *  0.133211 *  -1.09800    1.000000    
      8 O     c    0.133212 *  0.305769 *  0.932480 *  -1.09800    1.000000    
      9 O     c    0.666058 *  0.305770 *  0.399635 *  -1.09800    1.000000    
     10 O     c    0.399633 *  0.305770 *  0.666056 *  -1.09800    1.000000    
     11 O     c    0.133211 *  0.838617 *  0.399633 *  -1.09800    1.000000    
     12 O     c    0.932480 *  0.838617 *  0.666058 *  -1.09800    1.000000    
--------------------------------------------------------------------------------



********************************************************************************
*  General input information                                                   *
********************************************************************************

  Species output for all configurations : 

--------------------------------------------------------------------------------
  Species    Type    Atomic    Atomic    Charge       Radii (Angs)     Library
                     Number     Mass       (e)     Cova   Ionic  VDW   Symbol
--------------------------------------------------------------------------------
    Ti       Core       22      47.88   2.196000   1.470  0.000  2.190          
    O        Core        8      16.00  -1.098000   0.730  0.000  1.360          
--------------------------------------------------------------------------------


  Lattice summation method               =    Ewald          (3-D)
                                         =    Parry          (2-D)
                                         =    Saunders et al (1-D)
  Accuracy factor for lattice sums       =   12.000


  Analytic derivatives to be used

  Time limit = Infinity

  Maximum range for interatomic potentials =    100000.000000 Angstroms

  General interatomic potentials :

--------------------------------------------------------------------------------
Atom  Types   Potential      Parameter       Value         Units   Cutoffs(Ang)
  1     2                                                            Min /  Max 
--------------------------------------------------------------------------------
Ti   c Ti   c Buckingham    Buckingham A     31120.100    eV        0.000 15.000
                            Buckingham rho  0.15400000    Ang       
                            Buckingham C     5.2500000    eV*Ang^6  
--------------------------------------------------------------------------------
O    c O    c Buckingham    Buckingham A     11782.700    eV        0.000 15.000
                            Buckingham rho  0.23400000    Ang       
                            Buckingham C     30.220000    eV*Ang^6  
--------------------------------------------------------------------------------
O    c Ti   c Buckingham    Buckingham A     16957.500    eV        0.000 15.000
                            Buckingham rho  0.19400000    Ang       
                            Buckingham C     12.590000    eV*Ang^6  
--------------------------------------------------------------------------------
Ti   c Ti   c Lennard       Lennard-Jones A  1.0000000    eV*Ang^m  0.000 15.000
                            Lennard-Jones B  0.0000000    eV*Ang^n  
                            Exponent m        12          None
                            Exponent n         6          None
--------------------------------------------------------------------------------
O    c O    c Lennard       Lennard-Jones A  1.0000000    eV*Ang^m  0.000 15.000
                            Lennard-Jones B  0.0000000    eV*Ang^n  
                            Exponent m        12          None
                            Exponent n         6          None
--------------------------------------------------------------------------------
O    c Ti   c Lennard       Lennard-Jones A  1.0000000    eV*Ang^m  0.000 15.000
                            Lennard-Jones B  0.0000000    eV*Ang^n  
                            Exponent m        12          None
                            Exponent n         6          None
--------------------------------------------------------------------------------

********************************************************************************
*  Output for configuration   1                                                *
********************************************************************************


  Components of energy : 

--------------------------------------------------------------------------------
  Interatomic potentials     =         152.33325150 eV    
  Monopole - monopole (real) =         -14.29904928 eV    
  Monopole - monopole (recip)=         -95.30946671 eV    
  Monopole - monopole (total)=        -109.60851600 eV    
--------------------------------------------------------------------------------
  Total lattice energy       =          42.72473550 eV    
--------------------------------------------------------------------------------
  Total lattice energy       =            4122.2839 kJ/(mole unit cells)
--------------------------------------------------------------------------------


  Number of variables =       39

  Maximum number of calculations  =          1000
  Maximum Hessian update interval =            10
  Maximum step size               =   1.000000000
  Maximum parameter tolerance     =   0.000010000
  Maximum function  tolerance     =   0.000010000
  Maximum gradient  tolerance     =   0.001000000
  Maximum gradient  component     =   0.010000000

  Symmetry not applied to optimisation

  Cell parameters to be optimised using strains

  Conjugate gradient optimiser to be used

  Lower half triangular hessian to be used

  Minimiser to switch to BFGS with exact hessian
  When gradient norm is less than     0.500000

  Start of bulk optimisation :

  Cycle:      0 Energy:        42.724736  Gnorm:     41.804473  CPU:    0.031
  Cycle:      1 Energy:        -9.232703  Gnorm:     21.165808  CPU:    0.091
  Cycle:      2 Energy:       -46.701361  Gnorm:     19.879814  CPU:    0.151
  Cycle:      3 Energy:       -93.267826  Gnorm:     11.902335  CPU:    0.214
  Cycle:      4 Energy:      -125.052693  Gnorm:      3.504424  CPU:    0.255
  Cycle:      5 Energy:      -135.614826  Gnorm:      3.935867  CPU:    0.283
  Cycle:      6 Energy:      -139.361659  Gnorm:      3.059914  CPU:    0.315
  Cycle:      7 Energy:      -144.916793  Gnorm:      1.545355  CPU:    0.359
  Cycle:      8 Energy:      -146.987298  Gnorm:      1.711168  CPU:    0.412
  Cycle:      9 Energy:      -148.779213  Gnorm:      1.046778  CPU:    0.450
  Cycle:     10 Energy:      -149.479146  Gnorm:      0.718675  CPU:    0.496
  Cycle:     11 Energy:      -150.682473  Gnorm:      1.120857  CPU:    0.553
  Cycle:     12 Energy:      -152.252373  Gnorm:      1.165342  CPU:    0.600
  Cycle:     13 Energy:      -153.099921  Gnorm:      0.739823  CPU:    0.652
  Cycle:     14 Energy:      -153.608714  Gnorm:      0.492589  CPU:    0.704
  ** Hessian calculated **
  Cycle:     15 Energy:      -153.909157  Gnorm:      0.648563  CPU:    0.817
  ** Hessian calculated **
  Cycle:     16 Energy:      -154.262317  Gnorm:      0.778316  CPU:    0.932
  Cycle:     17 Energy:      -154.525344  Gnorm:      0.808245  CPU:    0.974
  Cycle:     18 Energy:      -155.147460  Gnorm:      0.794280  CPU:    1.026
  Cycle:     19 Energy:      -155.578915  Gnorm:      0.746115  CPU:    1.068
  Cycle:     20 Energy:      -155.937806  Gnorm:      0.482438  CPU:    1.110
  Cycle:     21 Energy:      -156.256569  Gnorm:      0.360200  CPU:    1.162
  Cycle:     22 Energy:      -156.485077  Gnorm:      0.313217  CPU:    1.214
  Cycle:     23 Energy:      -156.684839  Gnorm:      0.216276  CPU:    1.265
  Cycle:     24 Energy:      -156.762864  Gnorm:      0.186960  CPU:    1.306
  Cycle:     25 Energy:      -156.796611  Gnorm:      0.129841  CPU:    1.348
  ** Hessian calculated **
  Cycle:     26 Energy:      -157.434667  Gnorm:      0.435088  CPU:    1.466
  ** Hessian calculated **
  Cycle:     27 Energy:      -157.931165  Gnorm:      0.527651  CPU:    1.538
  Cycle:     28 Energy:      -158.253722  Gnorm:      0.471662  CPU:    1.565
  Cycle:     29 Energy:      -158.673840  Gnorm:      0.450138  CPU:    1.603
  Cycle:     30 Energy:      -158.842933  Gnorm:      0.260829  CPU:    1.630
  Cycle:     31 Energy:      -158.983514  Gnorm:      0.284708  CPU:    1.662
  Cycle:     32 Energy:      -159.087325  Gnorm:      0.187444  CPU:    1.694
  Cycle:     33 Energy:      -159.143251  Gnorm:      0.096888  CPU:    1.720
  Cycle:     34 Energy:      -159.161600  Gnorm:      0.079615  CPU:    1.747
  Cycle:     35 Energy:      -159.174869  Gnorm:      0.078305  CPU:    1.779
  Cycle:     36 Energy:      -159.192256  Gnorm:      0.060834  CPU:    1.811
  ** Hessian calculated **
  Cycle:     37 Energy:      -159.201421  Gnorm:      0.002314  CPU:    1.883


  **** Optimisation achieved ****


  Final energy =    -159.20142960 eV      
  Final Gnorm  =       0.00009616

  Components of energy : 

--------------------------------------------------------------------------------
  Interatomic potentials     =          12.37913726 eV    
  Monopole - monopole (real) =         -68.43763596 eV    
  Monopole - monopole (recip)=        -103.14293091 eV    
  Monopole - monopole (total)=        -171.58056686 eV    
--------------------------------------------------------------------------------
  Total lattice energy       =        -159.20142960 eV    
--------------------------------------------------------------------------------
  Total lattice energy       =          -15360.5043 kJ/(mole unit cells)
--------------------------------------------------------------------------------

  Final fractional coordinates of atoms :

--------------------------------------------------------------------------------
   No.  Atomic        x           y          z          Radius
        Label       (Frac)      (Frac)     (Frac)       (Angs) 
--------------------------------------------------------------------------------
     1  Ti    c     0.000000    0.838622    0.000000    0.000000
     2  Ti    c     0.500001    0.338623    0.000001    0.000000
     3  Ti    c     0.000001    0.338626    0.500001    0.000000
     4  Ti    c     0.500002    0.838624    0.500001    0.000000
     5  O     c     0.303299    0.990261    0.151638    0.000000
     6  O     c     0.696703    0.686986    0.848364    0.000000
     7  O     c     0.196701    0.490259    0.151635    0.000000
     8  O     c     0.803298    0.186986    0.848363    0.000000
     9  O     c     0.696703    0.186987    0.348363    0.000000
    10  O     c     0.303299    0.490263    0.651635    0.000000
    11  O     c     0.803300    0.686988    0.348364    0.000000
    12  O     c     0.196704    0.990262    0.651637    0.000000
--------------------------------------------------------------------------------

  Final Cartesian lattice vectors (Angstroms) :

        4.487860    0.099997   -0.189913
       -0.083652    5.341532    0.836193
        0.194131    1.265117    5.253550


  Final cell parameters and derivatives :

--------------------------------------------------------------------------------
       a            4.492989 Angstrom     dE/de1(xx)    -0.000363 eV/strain
       b            5.407234 Angstrom     dE/de2(yy)    -0.000250 eV/strain
       c            5.407217 Angstrom     dE/de3(zz)    -0.000699 eV/strain
       alpha       67.615616 Degrees      dE/de4(yz)    -0.000468 eV/strain
       beta        89.999946 Degrees      dE/de5(xz)     0.000191 eV/strain
       gamma       90.000201 Degrees      dE/de6(xy)    -0.000561 eV/strain
--------------------------------------------------------------------------------

  Primitive cell volume =           121.467937 Angs**3

  Density of cell =      4.368098 g/cm**3

  Non-primitive cell volume =           121.467937 Angs**3


  Final internal derivatives :

--------------------------------------------------------------------------------
   No.  Atomic          a             b             c           Radius
        Label          (eV)          (eV)          (eV)        (eV/Angs)
--------------------------------------------------------------------------------
      1 Ti    c       0.000000      0.000000      0.000000      0.000000
      2 Ti    c       0.000027      0.000655      0.000623      0.000000
      3 Ti    c       0.000328      0.001842      0.000962      0.000000
      4 Ti    c       0.000374     -0.000916      0.000114      0.000000
      5 O     c       0.000487      0.000621      0.000290      0.000000
      6 O     c      -0.000483     -0.000012     -0.000111      0.000000
      7 O     c      -0.000426     -0.000927     -0.000793      0.000000
      8 O     c       0.000660     -0.000224     -0.000254      0.000000
      9 O     c      -0.000721     -0.000839     -0.000535      0.000000
     10 O     c       0.000289      0.000188     -0.000606      0.000000
     11 O     c       0.000546      0.000745      0.000523      0.000000
     12 O     c      -0.000517      0.000011      0.000115      0.000000
--------------------------------------------------------------------------------
  Maximum abs         0.000721      0.001842      0.000962      0.000000
--------------------------------------------------------------------------------


  Time to end of optimisation =       1.9092 seconds


  Peak dynamic memory used =       1.84 MB 


  Timing analysis for GULP :

--------------------------------------------------------------------------------
  Task / Subroutine                                          Time (Seconds)
--------------------------------------------------------------------------------
  Calculation of reciprocal space energy and derivatives          0.0603
  Calculation of real space energy and derivatives                1.8298
  Calculation and manipulation of Hessian matrix                  0.0005
  Calculation of matrix inversion                                 0.0010
  Global summation overhead                                       0.0002
--------------------------------------------------------------------------------
  Total CPU time                                                  1.9093
--------------------------------------------------------------------------------


  Job Finished at 11:09.22 29th May        2024                               

