********************************************************************************
*                       GENERAL UTILITY LATTICE PROGRAM                        *
*                                 Julian Gale                                  *
*                       Curtin Institute for Computation                       *
*                    School of Molecular and Life Sciences                     *
*                    Curtin University, Western Australia                      *
********************************************************************************
* Version = 6.0.0 * Last modified =  12th July 2021                            *
********************************************************************************
*  optimise     - perform optimisation run                                     *
*  conp         - constant pressure calculation                                *
*  conjugate    - use conjugate gradients minimiser                            *
********************************************************************************

  Job Started  at 11:09.22 29th May        2024                               

  Number of CPUs =     1


  Total number of configurations input =      1

********************************************************************************
*  Input for Configuration =   1                                               *
********************************************************************************

  Formula = Ti4O8                                                       

  Number of irreducible atoms/shells =      12


  Total number atoms/shells =      12

  Dimensionality = 3               :  Bulk   



  Cartesian lattice vectors (Angstroms) :

       -0.530777   -5.465161  -13.127962
       -2.371750    6.884954    5.695416
        4.727248    6.987155   23.156879

  Cell parameters (Angstroms/Degrees):

  a =      14.2300    alpha =  42.2018
  b =       9.2448    beta  = 169.3774
  c =      24.6457    gamma = 147.6520

  Initial cell volume =         134.024851 Angs**3

  Temperature of configuration =   0.00     K 

  Pressure of configuration =         0.000 GPa 

  Fractional coordinates of asymmetric unit :

--------------------------------------------------------------------------------
   No.  Atomic       x           y          z         Charge      Occupancy
        Label      (Frac)      (Frac)     (Frac)        (e)         (Frac)  
--------------------------------------------------------------------------------
      1 Ti    c    0.046780    0.208445    0.219504     2.19600    1.000000    
      2 Ti    c    0.254057 *  0.035717 *  0.012226 *   2.19600    1.000000    
      3 Ti    c    0.254057 *  0.173901 *  0.012227 *   2.19600    1.000000    
      4 Ti    c    0.046779 *  0.070260 *  0.219502 *   2.19600    1.000000    
      5 O     c    0.196555 *  0.064463 *  0.069722 *  -1.09800    1.000000    
      6 O     c    0.104279 *  0.179698 *  0.162006 *  -1.09800    1.000000    
      7 O     c    0.104279 *  0.041514 *  0.162004 *  -1.09800    1.000000    
      8 O     c    0.196559 *  0.202649 *  0.069729 *  -1.09800    1.000000    
      9 O     c    0.265652 *  0.237197 *  0.000638 *  -1.09800    1.000000    
     10 O     c    0.035183 *  0.145150 *  0.231095 *  -1.09800    1.000000    
     11 O     c    0.035183 *  0.006965 *  0.231095 *  -1.09800    1.000000    
     12 O     c    0.265650 *  0.099012 *  0.000632 *  -1.09800    1.000000    
--------------------------------------------------------------------------------



********************************************************************************
*  General input information                                                   *
********************************************************************************

  Species output for all configurations : 

--------------------------------------------------------------------------------
  Species    Type    Atomic    Atomic    Charge       Radii (Angs)     Library
                     Number     Mass       (e)     Cova   Ionic  VDW   Symbol
--------------------------------------------------------------------------------
    Ti       Core       22      47.88   2.196000   1.470  0.000  2.190          
    O        Core        8      16.00  -1.098000   0.730  0.000  1.360          
--------------------------------------------------------------------------------


  Lattice summation method               =    Ewald          (3-D)
                                         =    Parry          (2-D)
                                         =    Saunders et al (1-D)
  Accuracy factor for lattice sums       =   12.000


  Analytic derivatives to be used

  Time limit = Infinity

  Maximum range for interatomic potentials =    100000.000000 Angstroms

  General interatomic potentials :

--------------------------------------------------------------------------------
Atom  Types   Potential      Parameter       Value         Units   Cutoffs(Ang)
  1     2                                                            Min /  Max 
--------------------------------------------------------------------------------
Ti   c Ti   c Buckingham    Buckingham A     31120.100    eV        0.000 15.000
                            Buckingham rho  0.15400000    Ang       
                            Buckingham C     5.2500000    eV*Ang^6  
--------------------------------------------------------------------------------
O    c O    c Buckingham    Buckingham A     11782.700    eV        0.000 15.000
                            Buckingham rho  0.23400000    Ang       
                            Buckingham C     30.220000    eV*Ang^6  
--------------------------------------------------------------------------------
O    c Ti   c Buckingham    Buckingham A     16957.500    eV        0.000 15.000
                            Buckingham rho  0.19400000    Ang       
                            Buckingham C     12.590000    eV*Ang^6  
--------------------------------------------------------------------------------
Ti   c Ti   c Lennard       Lennard-Jones A  1.0000000    eV*Ang^m  0.000 15.000
                            Lennard-Jones B  0.0000000    eV*Ang^n  
                            Exponent m        12          None
                            Exponent n         6          None
--------------------------------------------------------------------------------
O    c O    c Lennard       Lennard-Jones A  1.0000000    eV*Ang^m  0.000 15.000
                            Lennard-Jones B  0.0000000    eV*Ang^n  
                            Exponent m        12          None
                            Exponent n         6          None
--------------------------------------------------------------------------------
O    c Ti   c Lennard       Lennard-Jones A  1.0000000    eV*Ang^m  0.000 15.000
                            Lennard-Jones B  0.0000000    eV*Ang^n  
                            Exponent m        12          None
                            Exponent n         6          None
--------------------------------------------------------------------------------

********************************************************************************
*  Output for configuration   1                                                *
********************************************************************************


  Components of energy : 

--------------------------------------------------------------------------------
  Interatomic potentials     =      708845.01063026 eV    
  Monopole - monopole (real) =        -311.94246016 eV    
  Monopole - monopole (recip)=         -93.27474568 eV    
  Monopole - monopole (total)=        -405.21720584 eV    
--------------------------------------------------------------------------------
  Total lattice energy       =      708439.79342442 eV    
--------------------------------------------------------------------------------
  Total lattice energy       =        68353610.5714 kJ/(mole unit cells)
--------------------------------------------------------------------------------


  Number of variables =       39

  Maximum number of calculations  =          1000
  Maximum Hessian update interval =            10
  Maximum step size               =   1.000000000
  Maximum parameter tolerance     =   0.000010000
  Maximum function  tolerance     =   0.000010000
  Maximum gradient  tolerance     =   0.001000000
  Maximum gradient  component     =   0.010000000

  Symmetry not applied to optimisation

  Cell parameters to be optimised using strains

  Conjugate gradient optimiser to be used

  Lower half triangular hessian to be used

  Minimiser to switch to BFGS with exact hessian
  When gradient norm is less than     0.500000

  Start of bulk optimisation :

  Cycle:      0 Energy:    708439.793424  Gnorm:2505279.995490  CPU:    0.105
  Cycle:      1 Energy:      3809.726049  Gnorm:   9311.124991  CPU:    0.484
  Cycle:      2 Energy:      1404.133882  Gnorm:   1480.416748  CPU:    0.904
  Cycle:      3 Energy:       804.160613  Gnorm:    751.339106  CPU:    1.186
  Cycle:      4 Energy:       612.070888  Gnorm:    479.072424  CPU:    1.422
  Cycle:      5 Energy:       497.254881  Gnorm:    443.238153  CPU:    1.705
  Cycle:      6 Energy:       390.508098  Gnorm:    331.466292  CPU:    1.940
  Cycle:      7 Energy:       316.239835  Gnorm:    300.800701  CPU:    2.221
  Cycle:      8 Energy:       231.244049  Gnorm:    239.671475  CPU:    2.452
  Cycle:      9 Energy:       167.125190  Gnorm:    190.282009  CPU:    2.729
  Cycle:     10 Energy:       135.006948  Gnorm:    118.548493  CPU:    2.916
  Cycle:     11 Energy:        25.184460  Gnorm:    214.215343  CPU:    3.327
  Cycle:     12 Energy:       -39.872415  Gnorm:    107.079044  CPU:    3.556
  Cycle:     13 Energy:       -64.763478  Gnorm:     43.620968  CPU:    3.741
  Cycle:     14 Energy:       -84.374434  Gnorm:     34.109126  CPU:    4.016
  Cycle:     15 Energy:       -93.412690  Gnorm:     26.731712  CPU:    4.245
  Cycle:     16 Energy:       -96.967231  Gnorm:     18.337692  CPU:    4.430
  Cycle:     17 Energy:      -108.595089  Gnorm:     14.747094  CPU:    4.703
  Cycle:     18 Energy:      -112.334892  Gnorm:     12.450685  CPU:    4.886
  Cycle:     19 Energy:      -116.500129  Gnorm:     10.114270  CPU:    5.112
  Cycle:     20 Energy:      -117.829183  Gnorm:      5.973622  CPU:    5.292
  Cycle:     21 Energy:      -120.837897  Gnorm:     11.878007  CPU:    5.515
  Cycle:     22 Energy:      -123.709606  Gnorm:      8.641714  CPU:    5.695
  Cycle:     23 Energy:      -125.112553  Gnorm:      7.701555  CPU:    5.874
  Cycle:     24 Energy:      -126.462130  Gnorm:      5.950730  CPU:    6.096
  Cycle:     25 Energy:      -130.558417  Gnorm:      6.503558  CPU:    6.403
  Cycle:     26 Energy:      -130.953815  Gnorm:      5.961150  CPU:    6.625
  Cycle:     27 Energy:      -131.439608  Gnorm:      3.738841  CPU:    6.847
  Cycle:     28 Energy:      -131.877657  Gnorm:      4.031077  CPU:    7.069
  Cycle:     29 Energy:      -132.553253  Gnorm:      4.613007  CPU:    7.291
  Cycle:     30 Energy:      -132.872123  Gnorm:      3.543215  CPU:    7.470
  Cycle:     31 Energy:      -133.074627  Gnorm:      2.244757  CPU:    7.692
  Cycle:     32 Energy:      -133.259818  Gnorm:      2.819957  CPU:    7.870
  Cycle:     33 Energy:      -133.621860  Gnorm:      3.759807  CPU:    8.092
  Cycle:     34 Energy:      -134.680566  Gnorm:      5.817959  CPU:    8.315
  Cycle:     35 Energy:      -135.571147  Gnorm:      4.735310  CPU:    8.494
  Cycle:     36 Energy:      -136.574524  Gnorm:      4.266608  CPU:    8.717
  Cycle:     37 Energy:      -137.113852  Gnorm:      4.375765  CPU:    8.896
  Cycle:     38 Energy:      -137.719709  Gnorm:      5.821693  CPU:    9.119
  Cycle:     39 Energy:      -138.615005  Gnorm:      5.021130  CPU:    9.341
  Cycle:     40 Energy:      -139.203632  Gnorm:      3.323034  CPU:    9.519
  Cycle:     41 Energy:      -139.372504  Gnorm:      2.750904  CPU:    9.698
  Cycle:     42 Energy:      -139.540694  Gnorm:      2.580793  CPU:    9.919
  Cycle:     43 Energy:      -139.788130  Gnorm:      3.220147  CPU:   10.141
  Cycle:     44 Energy:      -140.322905  Gnorm:      4.140072  CPU:   10.364
  Cycle:     45 Energy:      -140.667623  Gnorm:      2.909345  CPU:   10.545
  Cycle:     46 Energy:      -141.013225  Gnorm:      3.378898  CPU:   10.770
  Cycle:     47 Energy:      -141.211256  Gnorm:      2.306055  CPU:   10.950
  Cycle:     48 Energy:      -141.437598  Gnorm:      2.886374  CPU:   11.175
  Cycle:     49 Energy:      -141.730185  Gnorm:      2.542923  CPU:   11.355
  Cycle:     50 Energy:      -141.904520  Gnorm:      1.899028  CPU:   11.536
  Cycle:     51 Energy:      -141.979307  Gnorm:      1.606788  CPU:   11.717
  Cycle:     52 Energy:      -142.122514  Gnorm:      2.398962  CPU:   11.941
  Cycle:     53 Energy:      -142.313867  Gnorm:      2.581966  CPU:   12.166
  Cycle:     54 Energy:      -142.746580  Gnorm:      3.570565  CPU:   12.391
  Cycle:     55 Energy:      -143.047231  Gnorm:      3.481370  CPU:   12.573
  Cycle:     56 Energy:      -143.365313  Gnorm:      2.304161  CPU:   12.757
  Cycle:     57 Energy:      -143.577815  Gnorm:      2.415656  CPU:   12.989
  Cycle:     58 Energy:      -143.902988  Gnorm:      4.607494  CPU:   13.221
  Cycle:     59 Energy:      -144.546816  Gnorm:      4.738086  CPU:   13.455
  Cycle:     60 Energy:      -144.915657  Gnorm:      3.306647  CPU:   13.690
  Cycle:     61 Energy:      -145.132598  Gnorm:      1.448310  CPU:   13.924
  Cycle:     62 Energy:      -145.180959  Gnorm:      1.085144  CPU:   14.159
  Cycle:     63 Energy:      -145.262656  Gnorm:      1.782780  CPU:   14.393
  Cycle:     64 Energy:      -145.402259  Gnorm:      2.621798  CPU:   14.629
  Cycle:     65 Energy:      -145.561947  Gnorm:      2.278537  CPU:   14.818
  Cycle:     66 Energy:      -145.737642  Gnorm:      1.685519  CPU:   15.007
  Cycle:     67 Energy:      -145.831992  Gnorm:      1.929981  CPU:   15.241
  Cycle:     68 Energy:      -146.117092  Gnorm:      2.708691  CPU:   15.476
  Cycle:     69 Energy:      -146.369866  Gnorm:      3.361662  CPU:   15.666
  Cycle:     70 Energy:      -146.515682  Gnorm:      1.974172  CPU:   15.902
  Cycle:     71 Energy:      -146.636734  Gnorm:      0.971947  CPU:   16.138
  Cycle:     72 Energy:      -146.674555  Gnorm:      1.245482  CPU:   16.374
  Cycle:     73 Energy:      -146.724604  Gnorm:      1.407570  CPU:   16.610
  Cycle:     74 Energy:      -146.794648  Gnorm:      1.294906  CPU:   16.801
  Cycle:     75 Energy:      -146.860249  Gnorm:      1.694473  CPU:   17.037
  Cycle:     76 Energy:      -146.963613  Gnorm:      1.401729  CPU:   17.274
  Cycle:     77 Energy:      -147.024769  Gnorm:      1.685534  CPU:   17.464
  Cycle:     78 Energy:      -147.131375  Gnorm:      1.841467  CPU:   17.702
  Cycle:     79 Energy:      -147.205644  Gnorm:      1.621367  CPU:   17.893
  Cycle:     80 Energy:      -147.247984  Gnorm:      1.258547  CPU:   18.084
  Cycle:     81 Energy:      -147.287622  Gnorm:      1.220700  CPU:   18.322
  Cycle:     82 Energy:      -147.338207  Gnorm:      1.144951  CPU:   18.513
  Cycle:     83 Energy:      -147.419954  Gnorm:      1.352821  CPU:   18.751
  Cycle:     84 Energy:      -147.481110  Gnorm:      0.729843  CPU:   18.943
  Cycle:     85 Energy:      -147.515499  Gnorm:      0.951230  CPU:   19.180
  Cycle:     86 Energy:      -147.557910  Gnorm:      1.053093  CPU:   19.419
  Cycle:     87 Energy:      -147.614741  Gnorm:      1.902658  CPU:   19.610
  Cycle:     88 Energy:      -147.731990  Gnorm:      1.653449  CPU:   19.851
  Cycle:     89 Energy:      -147.831019  Gnorm:      1.773089  CPU:   20.044
  Cycle:     90 Energy:      -147.872515  Gnorm:      0.790959  CPU:   20.237
  Cycle:     91 Energy:      -147.903871  Gnorm:      1.076588  CPU:   20.477
  Cycle:     92 Energy:      -147.924422  Gnorm:      0.736234  CPU:   20.670
  Cycle:     93 Energy:      -147.941934  Gnorm:      0.769096  CPU:   20.910
  Cycle:     94 Energy:      -147.971084  Gnorm:      1.272853  CPU:   21.103
  Cycle:     95 Energy:      -148.017088  Gnorm:      1.129867  CPU:   21.343
  Cycle:     96 Energy:      -148.076759  Gnorm:      1.696612  CPU:   21.537
  Cycle:     97 Energy:      -148.141306  Gnorm:      1.188442  CPU:   21.733
  Cycle:     98 Energy:      -148.176998  Gnorm:      0.908357  CPU:   21.929
  Cycle:     99 Energy:      -148.209777  Gnorm:      1.193169  CPU:   22.172
  Cycle:    100 Energy:      -148.228375  Gnorm:      0.648064  CPU:   22.367
  Cycle:    101 Energy:      -148.236022  Gnorm:      0.513846  CPU:   22.613
  Cycle:    102 Energy:      -148.278598  Gnorm:      1.141064  CPU:   22.856
  Cycle:    103 Energy:      -148.322651  Gnorm:      1.164819  CPU:   23.052
  Cycle:    104 Energy:      -148.358785  Gnorm:      1.111645  CPU:   23.297
  Cycle:    105 Energy:      -148.386607  Gnorm:      0.986042  CPU:   23.494
  Cycle:    106 Energy:      -148.412331  Gnorm:      0.966390  CPU:   23.738
  Cycle:    107 Energy:      -148.458154  Gnorm:      1.270108  CPU:   23.983
  Cycle:    108 Energy:      -148.491147  Gnorm:      1.222298  CPU:   24.180
  Cycle:    109 Energy:      -148.549787  Gnorm:      1.253109  CPU:   24.426
  Cycle:    110 Energy:      -148.577387  Gnorm:      0.757559  CPU:   24.624
  Cycle:    111 Energy:      -148.591469  Gnorm:      0.731909  CPU:   24.872
  Cycle:    112 Energy:      -148.605779  Gnorm:      0.651880  CPU:   25.071
  Cycle:    113 Energy:      -148.620470  Gnorm:      0.619815  CPU:   25.319
  Cycle:    114 Energy:      -148.646423  Gnorm:      0.932684  CPU:   25.567
  Cycle:    115 Energy:      -148.666993  Gnorm:      1.179922  CPU:   25.767
  Cycle:    116 Energy:      -148.767925  Gnorm:      2.598429  CPU:   26.015
  Cycle:    117 Energy:      -148.973897  Gnorm:      2.323767  CPU:   26.265
  Cycle:    118 Energy:      -149.091881  Gnorm:      1.999402  CPU:   26.518
  Cycle:    119 Energy:      -149.157611  Gnorm:      1.095712  CPU:   26.720
  Cycle:    120 Energy:      -149.178005  Gnorm:      0.480833  CPU:   26.970
  ** Hessian calculated **
  Cycle:    121 Energy:      -149.529338  Gnorm:      2.231016  CPU:   27.296
  Cycle:    122 Energy:      -149.706415  Gnorm:      0.972448  CPU:   27.501
  Cycle:    123 Energy:      -149.804129  Gnorm:      1.926536  CPU:   27.707
  Cycle:    124 Energy:      -149.910631  Gnorm:      0.682840  CPU:   27.970
  Cycle:    125 Energy:      -150.059956  Gnorm:      1.418655  CPU:   28.233
  Cycle:    126 Energy:      -150.241294  Gnorm:      1.720805  CPU:   28.499
  Cycle:    127 Energy:      -150.511702  Gnorm:      2.064025  CPU:   28.775
  Cycle:    128 Energy:      -150.615323  Gnorm:      2.257086  CPU:   29.000
  ** Hessian calculated **
  Cycle:    129 Energy:      -150.912105  Gnorm:      1.852957  CPU:   29.309
  Cycle:    130 Energy:      -151.179370  Gnorm:      2.138070  CPU:   29.585
  Cycle:    131 Energy:      -151.455264  Gnorm:      2.442827  CPU:   29.861
  Cycle:    132 Energy:      -151.664933  Gnorm:      2.320852  CPU:   30.083
  Cycle:    133 Energy:      -151.905474  Gnorm:      1.634030  CPU:   30.363
  Cycle:    134 Energy:      -152.165028  Gnorm:      1.825828  CPU:   30.644
  Cycle:    135 Energy:      -152.360259  Gnorm:      1.395691  CPU:   30.871
  Cycle:    136 Energy:      -152.471613  Gnorm:      1.933971  CPU:   31.098
  Cycle:    137 Energy:      -152.697066  Gnorm:      2.543774  CPU:   31.379
  Cycle:    138 Energy:      -152.854435  Gnorm:      1.607864  CPU:   31.601
  ** Hessian calculated **
  Cycle:    139 Energy:      -152.943837  Gnorm:      0.996207  CPU:   31.906
  Cycle:    140 Energy:      -153.029623  Gnorm:      1.155287  CPU:   32.181
  Cycle:    141 Energy:      -153.079590  Gnorm:      0.977559  CPU:   32.400
  Cycle:    142 Energy:      -153.109799  Gnorm:      0.981889  CPU:   32.619
  Cycle:    143 Energy:      -153.174036  Gnorm:      1.113750  CPU:   32.889
  Cycle:    144 Energy:      -153.218379  Gnorm:      0.962381  CPU:   33.107
  Cycle:    145 Energy:      -153.277817  Gnorm:      1.200128  CPU:   33.378
  Cycle:    146 Energy:      -153.313086  Gnorm:      0.758836  CPU:   33.595
  Cycle:    147 Energy:      -153.368492  Gnorm:      0.848826  CPU:   33.866
  Cycle:    148 Energy:      -153.418674  Gnorm:      0.862664  CPU:   34.134
  ** Hessian calculated **
  Cycle:    149 Energy:      -153.446698  Gnorm:      0.775138  CPU:   34.440
  Cycle:    150 Energy:      -153.484115  Gnorm:      0.830625  CPU:   34.707
  Cycle:    151 Energy:      -153.510274  Gnorm:      0.548432  CPU:   34.922
  Cycle:    152 Energy:      -153.527407  Gnorm:      0.728940  CPU:   35.136
  Cycle:    153 Energy:      -153.551977  Gnorm:      0.383445  CPU:   35.401
  Cycle:    154 Energy:      -153.572057  Gnorm:      0.609852  CPU:   35.666
  Cycle:    155 Energy:      -153.590504  Gnorm:      0.576821  CPU:   35.932
  Cycle:    156 Energy:      -153.607585  Gnorm:      0.374147  CPU:   36.198
  Cycle:    157 Energy:      -153.641338  Gnorm:      0.623484  CPU:   36.462
  Cycle:    158 Energy:      -153.736788  Gnorm:      1.426095  CPU:   36.725
  ** Hessian calculated **
  Cycle:    159 Energy:      -153.812622  Gnorm:      0.732742  CPU:   37.028
  Cycle:    160 Energy:      -153.852146  Gnorm:      0.684249  CPU:   37.292
  Cycle:    161 Energy:      -153.889689  Gnorm:      0.840635  CPU:   37.557
  Cycle:    162 Energy:      -153.954249  Gnorm:      0.855502  CPU:   37.822
  Cycle:    163 Energy:      -153.996324  Gnorm:      0.754068  CPU:   38.035
  Cycle:    164 Energy:      -154.039452  Gnorm:      0.786859  CPU:   38.301
  Cycle:    165 Energy:      -154.113616  Gnorm:      0.885880  CPU:   38.568
  Cycle:    166 Energy:      -154.174865  Gnorm:      0.808223  CPU:   38.836
  Cycle:    167 Energy:      -154.197633  Gnorm:      0.641983  CPU:   39.259
  Cycle:    168 Energy:      -154.198462  Gnorm:      0.641128  CPU:   39.736
  ** Hessian calculated **
  Cycle:    169 Energy:      -154.198524  Gnorm:      0.640463  CPU:   40.294
  Cycle:    170 Energy:      -154.207987  Gnorm:      0.981094  CPU:   40.770
  Cycle:    171 Energy:      -154.250830  Gnorm:      0.793889  CPU:   40.983
  Cycle:    172 Energy:      -154.298167  Gnorm:      1.094259  CPU:   41.248
  Cycle:    173 Energy:      -154.362996  Gnorm:      1.400874  CPU:   41.513
  Cycle:    174 Energy:      -154.459512  Gnorm:      0.920301  CPU:   41.726
  Cycle:    175 Energy:      -154.512686  Gnorm:      0.741619  CPU:   41.990
  Cycle:    176 Energy:      -154.545810  Gnorm:      0.893561  CPU:   42.202
  Cycle:    177 Energy:      -154.564582  Gnorm:      0.817412  CPU:   42.518
  Cycle:    178 Energy:      -154.569302  Gnorm:      0.805134  CPU:   42.834
  ** Hessian calculated **
  Cycle:    179 Energy:      -154.570511  Gnorm:      0.780074  CPU:   43.336
  Cycle:    180 Energy:      -154.572114  Gnorm:      0.762741  CPU:   43.811
  Cycle:    181 Energy:      -154.577041  Gnorm:      1.161984  CPU:   44.284
  Cycle:    182 Energy:      -154.619183  Gnorm:      0.954693  CPU:   44.496
  Cycle:    183 Energy:      -154.639628  Gnorm:      0.977958  CPU:   44.708
  Cycle:    184 Energy:      -154.727225  Gnorm:      1.349113  CPU:   44.969
  Cycle:    185 Energy:      -154.784844  Gnorm:      0.943750  CPU:   45.178
  Cycle:    186 Energy:      -154.856114  Gnorm:      1.323521  CPU:   45.437
  Cycle:    187 Energy:      -154.922539  Gnorm:      1.460688  CPU:   45.694
  Cycle:    188 Energy:      -155.062818  Gnorm:      1.419902  CPU:   45.948
  ** Hessian calculated **
  Cycle:    189 Energy:      -155.129779  Gnorm:      0.511800  CPU:   46.285
  Cycle:    190 Energy:      -155.153458  Gnorm:      0.579920  CPU:   46.536
  Cycle:    191 Energy:      -155.177951  Gnorm:      0.679775  CPU:   46.790
  Cycle:    192 Energy:      -155.205734  Gnorm:      0.423051  CPU:   47.044
  Cycle:    193 Energy:      -155.229554  Gnorm:      0.537802  CPU:   47.249
  Cycle:    194 Energy:      -155.264383  Gnorm:      0.687359  CPU:   47.504
  Cycle:    195 Energy:      -155.315807  Gnorm:      0.934472  CPU:   47.760
  Cycle:    196 Energy:      -155.344337  Gnorm:      0.484322  CPU:   47.964
  Cycle:    197 Energy:      -155.408358  Gnorm:      1.026346  CPU:   48.218
  Cycle:    198 Energy:      -155.471567  Gnorm:      0.693208  CPU:   48.471
  ** Hessian calculated **
  Cycle:    199 Energy:      -155.517128  Gnorm:      0.766657  CPU:   48.753
  Cycle:    200 Energy:      -155.551969  Gnorm:      0.459214  CPU:   49.003
  Cycle:    201 Energy:      -155.579294  Gnorm:      0.694474  CPU:   49.204
  Cycle:    202 Energy:      -155.607958  Gnorm:      0.512738  CPU:   49.455
  Cycle:    203 Energy:      -155.628292  Gnorm:      0.418885  CPU:   49.706
  Cycle:    204 Energy:      -155.647816  Gnorm:      0.598199  CPU:   49.956
  Cycle:    205 Energy:      -155.669554  Gnorm:      0.667903  CPU:   50.205
  Cycle:    206 Energy:      -155.685153  Gnorm:      0.434997  CPU:   50.405
  Cycle:    207 Energy:      -155.710238  Gnorm:      0.595070  CPU:   50.653
  Cycle:    208 Energy:      -155.760425  Gnorm:      1.044486  CPU:   50.900
  ** Hessian calculated **
  Cycle:    209 Energy:      -155.791969  Gnorm:      0.554631  CPU:   51.233
  Cycle:    210 Energy:      -155.806166  Gnorm:      0.332842  CPU:   51.480
  Cycle:    211 Energy:      -155.817898  Gnorm:      0.480310  CPU:   51.729
  Cycle:    212 Energy:      -155.832688  Gnorm:      0.389607  CPU:   51.978
  Cycle:    213 Energy:      -155.843642  Gnorm:      0.323555  CPU:   52.178
  Cycle:    214 Energy:      -155.857885  Gnorm:      0.428656  CPU:   52.428
  Cycle:    215 Energy:      -155.874821  Gnorm:      0.407008  CPU:   52.677
  Cycle:    216 Energy:      -155.887664  Gnorm:      0.365205  CPU:   52.877
  Cycle:    217 Energy:      -155.904106  Gnorm:      0.253190  CPU:   53.125
  Cycle:    218 Energy:      -155.952303  Gnorm:      0.676853  CPU:   53.420
  ** Hessian calculated **
  Cycle:    219 Energy:      -155.969976  Gnorm:      0.288083  CPU:   53.697
  Cycle:    220 Energy:      -155.980700  Gnorm:      0.282834  CPU:   53.945
  Cycle:    221 Energy:      -155.985007  Gnorm:      0.269894  CPU:   54.145
  Cycle:    222 Energy:      -155.992439  Gnorm:      0.233687  CPU:   54.394
  Cycle:    223 Energy:      -155.998424  Gnorm:      0.240663  CPU:   54.642
  Cycle:    224 Energy:      -156.004033  Gnorm:      0.229728  CPU:   54.890
  Cycle:    225 Energy:      -156.008645  Gnorm:      0.261539  CPU:   55.089
  Cycle:    226 Energy:      -156.013590  Gnorm:      0.194840  CPU:   55.337
  Cycle:    227 Energy:      -156.017517  Gnorm:      0.287376  CPU:   55.536
  Cycle:    228 Energy:      -156.026056  Gnorm:      0.298559  CPU:   55.783
  ** Hessian calculated **
  Cycle:    229 Energy:      -156.029925  Gnorm:      0.192181  CPU:   56.060
  Cycle:    230 Energy:      -156.032678  Gnorm:      0.232389  CPU:   56.307
  Cycle:    231 Energy:      -156.035471  Gnorm:      0.202955  CPU:   56.555
  Cycle:    232 Energy:      -156.039111  Gnorm:      0.165876  CPU:   56.754
  Cycle:    233 Energy:      -156.041756  Gnorm:      0.165005  CPU:   56.954
  Cycle:    234 Energy:      -156.045849  Gnorm:      0.205072  CPU:   57.201
  Cycle:    235 Energy:      -156.049499  Gnorm:      0.205649  CPU:   57.400
  Cycle:    236 Energy:      -156.052381  Gnorm:      0.183857  CPU:   57.599
  Cycle:    237 Energy:      -156.056707  Gnorm:      0.261473  CPU:   57.847
  Cycle:    238 Energy:      -156.063526  Gnorm:      0.306945  CPU:   58.093
  ** Hessian calculated **
  Cycle:    239 Energy:      -156.067371  Gnorm:      0.200435  CPU:   58.370
  Cycle:    240 Energy:      -156.070631  Gnorm:      0.173446  CPU:   58.617
  Cycle:    241 Energy:      -156.073042  Gnorm:      0.156885  CPU:   58.817
  Cycle:    242 Energy:      -156.075985  Gnorm:      0.189193  CPU:   59.065
  Cycle:    243 Energy:      -156.079062  Gnorm:      0.156621  CPU:   59.313
  Cycle:    244 Energy:      -156.081529  Gnorm:      0.155512  CPU:   59.511
  Cycle:    245 Energy:      -156.083295  Gnorm:      0.132749  CPU:   59.710
  Cycle:    246 Energy:      -156.085326  Gnorm:      0.178036  CPU:   59.956
  Cycle:    247 Energy:      -156.087373  Gnorm:      0.159754  CPU:   60.202
  Cycle:    248 Energy:      -156.089417  Gnorm:      0.197639  CPU:   60.400
  ** Hessian calculated **
  Cycle:    249 Energy:      -156.107251  Gnorm:      0.192384  CPU:   60.873
  Cycle:    250 Energy:      -156.136313  Gnorm:      0.183755  CPU:   61.216
  ** Hessian calculated **
  Cycle:    251 Energy:      -156.181279  Gnorm:      0.166283  CPU:   61.699
  Cycle:    252 Energy:      -156.240987  Gnorm:      0.148641  CPU:   61.992
  ** Hessian calculated **
  Cycle:    253 Energy:      -156.319141  Gnorm:      0.111515  CPU:   62.417
  Cycle:    254 Energy:      -156.371498  Gnorm:      0.096830  CPU:   62.662
  Cycle:    255 Energy:      -156.382964  Gnorm:      0.050806  CPU:   62.858
  Cycle:    256 Energy:      -156.383743  Gnorm:      0.027407  CPU:   63.054
  Cycle:    257 Energy:      -156.383803  Gnorm:      0.008899  CPU:   63.299
  Cycle:    258 Energy:      -156.383811  Gnorm:      0.004368  CPU:   63.543
  Cycle:    259 Energy:      -156.383814  Gnorm:      0.000722  CPU:   63.739
  Cycle:    260 Energy:      -156.383814  Gnorm:      0.000543  CPU:   64.079
  ** Hessian calculated **
  Cycle:    261 Energy:      -156.383814  Gnorm:      0.000419  CPU:   64.362
  Cycle:    262 Energy:      -156.383814  Gnorm:      0.000419  CPU:   64.559
  Cycle:    263 Energy:      -156.383814  Gnorm:      0.000419  CPU:   64.755
  Cycle:    264 Energy:      -156.383814  Gnorm:      0.000419  CPU:   64.952
  Cycle:    265 Energy:      -156.383814  Gnorm:      0.000419  CPU:   65.291
  Cycle:    266 Energy:      -156.383814  Gnorm:      0.000419  CPU:   65.488
  Cycle:    267 Energy:      -156.383814  Gnorm:      0.000419  CPU:   65.685
  Cycle:    268 Energy:      -156.383814  Gnorm:      0.000420  CPU:   65.882
  Cycle:    269 Energy:      -156.383814  Gnorm:      0.000420  CPU:   66.078
  Cycle:    270 Energy:      -156.383814  Gnorm:      0.000420  CPU:   66.275
  ** Hessian calculated **


  **** Too many failed attempts to optimise ****

  Final energy =    -156.38381447 eV      
  Final Gnorm  =       0.00041908

  Components of energy : 

--------------------------------------------------------------------------------
  Interatomic potentials     =          12.60183744 eV    
  Monopole - monopole (real) =         -68.82408434 eV    
  Monopole - monopole (recip)=        -100.16156757 eV    
  Monopole - monopole (total)=        -168.98565192 eV    
--------------------------------------------------------------------------------
  Total lattice energy       =        -156.38381447 eV    
--------------------------------------------------------------------------------
  Total lattice energy       =          -15088.6476 kJ/(mole unit cells)
--------------------------------------------------------------------------------

  Final fractional coordinates of atoms :

--------------------------------------------------------------------------------
   No.  Atomic        x           y          z          Radius
        Label       (Frac)      (Frac)     (Frac)       (Angs) 
--------------------------------------------------------------------------------
     1  Ti    c     0.046780    0.208445    0.219504    0.000000
     2  Ti    c     0.226222    0.868480    0.967059    0.000000
     3  Ti    c     0.128804    0.905380    0.003522    0.000000
     4  Ti    c     0.112430    0.218873    0.133636    0.000000
     5  O     c     0.220252    0.636907    0.089858    0.000000
     6  O     c     0.136903    0.431513    0.016832    0.000000
     7  O     c     0.091888    0.694819    0.106190    0.000000
     8  O     c     0.223832    0.265653    0.991120    0.000000
     9  O     c     0.942442    0.067467    0.791416    0.000000
    10  O     c     0.840311    0.059138    0.085081    0.000000
    11  O     c     0.001896    0.842205    0.149062    0.000000
    12  O     c     0.509988    0.078251    0.010240    0.000000
--------------------------------------------------------------------------------

  Final Cartesian lattice vectors (Angstroms) :

       -1.913048   -6.401013  -15.526179
        0.860461    7.310647    6.702614
        5.216586    9.244940   27.318837


  Final cell parameters and derivatives :

--------------------------------------------------------------------------------
       a           16.902514 Angstrom     dE/de1(xx)     0.000068 eV/strain
       b            9.955451 Angstrom     dE/de2(yy)    -0.000797 eV/strain
       c           29.308712 Angstrom     dE/de3(zz)    -0.000843 eV/strain
       alpha       29.006071 Degrees      dE/de4(yz)     0.000116 eV/strain
       beta       174.751314 Degrees      dE/de5(xz)    -0.000015 eV/strain
       gamma      155.001041 Degrees      dE/de6(xy)    -0.000176 eV/strain
--------------------------------------------------------------------------------

  Primitive cell volume =           131.735746 Angs**3

  Density of cell =      4.027638 g/cm**3

  Non-primitive cell volume =           131.735746 Angs**3


  Final internal derivatives :

--------------------------------------------------------------------------------
   No.  Atomic          a             b             c           Radius
        Label          (eV)          (eV)          (eV)        (eV/Angs)
--------------------------------------------------------------------------------
      1 Ti    c       0.000000      0.000000      0.000000      0.000000
      2 Ti    c      -0.000657      0.000357      0.001314      0.000000
      3 Ti    c      -0.000332      0.000026      0.000890      0.000000
      4 Ti    c       0.000772     -0.000064     -0.001983      0.000000
      5 O     c       0.000739     -0.000476     -0.001335      0.000000
      6 O     c       0.000081     -0.000414      0.000123      0.000000
      7 O     c      -0.003313      0.000664      0.006685      0.000000
      8 O     c      -0.001717      0.001253      0.002634      0.000000
      9 O     c      -0.000140      0.000388     -0.000306      0.000000
     10 O     c       0.000644     -0.000112     -0.001040      0.000000
     11 O     c       0.000980     -0.000216     -0.002153      0.000000
     12 O     c       0.006543     -0.002856     -0.011372      0.000000
--------------------------------------------------------------------------------
  Maximum abs         0.006543      0.002856      0.011372      0.000000
--------------------------------------------------------------------------------


  Time to end of optimisation =      66.5618 seconds


  Peak dynamic memory used =       1.84 MB 


  Timing analysis for GULP :

--------------------------------------------------------------------------------
  Task / Subroutine                                          Time (Seconds)
--------------------------------------------------------------------------------
  Calculation of reciprocal space energy and derivatives          0.2254
  Calculation of real space energy and derivatives               66.2625
  Calculation and manipulation of Hessian matrix                  0.0019
  Calculation of matrix inversion                                 0.0035
  Global summation overhead                                       0.0018
--------------------------------------------------------------------------------
  Total CPU time                                                 66.5618
--------------------------------------------------------------------------------


  Job Finished at 11:10.29 29th May        2024                               

