********************************************************************************
*                       GENERAL UTILITY LATTICE PROGRAM                        *
*                                 Julian Gale                                  *
*                       Curtin Institute for Computation                       *
*                    School of Molecular and Life Sciences                     *
*                    Curtin University, Western Australia                      *
********************************************************************************
* Version = 6.0.0 * Last modified =  12th July 2021                            *
********************************************************************************
*  optimise     - perform optimisation run                                     *
*  conp         - constant pressure calculation                                *
*  conjugate    - use conjugate gradients minimiser                            *
********************************************************************************

  Job Started  at 11:09.15 29th May        2024                               

  Number of CPUs =     1


  Total number of configurations input =      1

********************************************************************************
*  Input for Configuration =   1                                               *
********************************************************************************

  Formula = Ti4O8                                                       

  Number of irreducible atoms/shells =      12


  Total number atoms/shells =      12

  Dimensionality = 3               :  Bulk   



  Cartesian lattice vectors (Angstroms) :

        4.937003   -0.764949   -0.291393
       -1.685728    6.027097   -1.411913
        0.154098   -0.880906    4.923750

  Cell parameters (Angstroms/Degrees):

  a =       5.0044    alpha = 112.9538
  b =       6.4157    beta  =  90.0003
  c =       5.0043    gamma = 112.9542

  Initial cell volume =         134.024851 Angs**3

  Temperature of configuration =   0.00     K 

  Pressure of configuration =         0.000 GPa 

  Fractional coordinates of asymmetric unit :

--------------------------------------------------------------------------------
   No.  Atomic       x           y          z         Charge      Occupancy
        Label      (Frac)      (Frac)     (Frac)        (e)         (Frac)  
--------------------------------------------------------------------------------
      1 Ti    c    0.525268    0.849267    0.825864     2.19600    1.000000    
      2 Ti    c    0.467802 *  0.274027 *  0.358862 *   2.19600    1.000000    
      3 Ti    c    0.027611 *  0.849263 *  0.467114 *   2.19600    1.000000    
      4 Ti    c    0.885854 *  0.152227 *  0.776927 *   2.19600    1.000000    
      5 O     c    0.707299 *  0.752986 *  0.119387 *  -1.09800    1.000000    
      6 O     c    0.109945 *  0.055945 *  0.070451 *  -1.09800    1.000000    
      7 O     c    0.167415 *  0.631185 *  0.537439 *  -1.09800    1.000000    
      8 O     c    0.815552 *  0.370330 *  0.176878 *  -1.09800    1.000000    
      9 O     c    0.216354 *  0.370301 *  0.637149 *  -1.09800    1.000000    
     10 O     c    0.418865 *  0.534914 *  0.259148 *  -1.09800    1.000000    
     11 O     c    0.607571 *  0.055956 *  0.429208 *  -1.09800    1.000000    
     12 O     c    0.777618 *  0.534902 *  0.719454 *  -1.09800    1.000000    
--------------------------------------------------------------------------------



********************************************************************************
*  General input information                                                   *
********************************************************************************

  Species output for all configurations : 

--------------------------------------------------------------------------------
  Species    Type    Atomic    Atomic    Charge       Radii (Angs)     Library
                     Number     Mass       (e)     Cova   Ionic  VDW   Symbol
--------------------------------------------------------------------------------
    Ti       Core       22      47.88   2.196000   1.470  0.000  2.190          
    O        Core        8      16.00  -1.098000   0.730  0.000  1.360          
--------------------------------------------------------------------------------


  Lattice summation method               =    Ewald          (3-D)
                                         =    Parry          (2-D)
                                         =    Saunders et al (1-D)
  Accuracy factor for lattice sums       =   12.000


  Analytic derivatives to be used

  Time limit = Infinity

  Maximum range for interatomic potentials =    100000.000000 Angstroms

  General interatomic potentials :

--------------------------------------------------------------------------------
Atom  Types   Potential      Parameter       Value         Units   Cutoffs(Ang)
  1     2                                                            Min /  Max 
--------------------------------------------------------------------------------
Ti   c Ti   c Buckingham    Buckingham A     31120.100    eV        0.000 15.000
                            Buckingham rho  0.15400000    Ang       
                            Buckingham C     5.2500000    eV*Ang^6  
--------------------------------------------------------------------------------
O    c O    c Buckingham    Buckingham A     11782.700    eV        0.000 15.000
                            Buckingham rho  0.23400000    Ang       
                            Buckingham C     30.220000    eV*Ang^6  
--------------------------------------------------------------------------------
O    c Ti   c Buckingham    Buckingham A     16957.500    eV        0.000 15.000
                            Buckingham rho  0.19400000    Ang       
                            Buckingham C     12.590000    eV*Ang^6  
--------------------------------------------------------------------------------
Ti   c Ti   c Lennard       Lennard-Jones A  1.0000000    eV*Ang^m  0.000 15.000
                            Lennard-Jones B  0.0000000    eV*Ang^n  
                            Exponent m        12          None
                            Exponent n         6          None
--------------------------------------------------------------------------------
O    c O    c Lennard       Lennard-Jones A  1.0000000    eV*Ang^m  0.000 15.000
                            Lennard-Jones B  0.0000000    eV*Ang^n  
                            Exponent m        12          None
                            Exponent n         6          None
--------------------------------------------------------------------------------
O    c Ti   c Lennard       Lennard-Jones A  1.0000000    eV*Ang^m  0.000 15.000
                            Lennard-Jones B  0.0000000    eV*Ang^n  
                            Exponent m        12          None
                            Exponent n         6          None
--------------------------------------------------------------------------------

********************************************************************************
*  Output for configuration   1                                                *
********************************************************************************


  Components of energy : 

--------------------------------------------------------------------------------
  Interatomic potentials     =          15.38312831 eV    
  Monopole - monopole (real) =         -33.41387715 eV    
  Monopole - monopole (recip)=         -92.87007985 eV    
  Monopole - monopole (total)=        -126.28395700 eV    
--------------------------------------------------------------------------------
  Total lattice energy       =        -110.90082869 eV    
--------------------------------------------------------------------------------
  Total lattice energy       =          -10700.2347 kJ/(mole unit cells)
--------------------------------------------------------------------------------


  Number of variables =       39

  Maximum number of calculations  =          1000
  Maximum Hessian update interval =            10
  Maximum step size               =   1.000000000
  Maximum parameter tolerance     =   0.000010000
  Maximum function  tolerance     =   0.000010000
  Maximum gradient  tolerance     =   0.001000000
  Maximum gradient  component     =   0.010000000

  Symmetry not applied to optimisation

  Cell parameters to be optimised using strains

  Conjugate gradient optimiser to be used

  Lower half triangular hessian to be used

  Minimiser to switch to BFGS with exact hessian
  When gradient norm is less than     0.500000

  Start of bulk optimisation :

  Cycle:      0 Energy:      -110.900829  Gnorm:      6.606554  CPU:    0.026
  Cycle:      1 Energy:      -124.762360  Gnorm:      5.544342  CPU:    0.062
  Cycle:      2 Energy:      -136.268117  Gnorm:      6.033910  CPU:    0.106
  Cycle:      3 Energy:      -139.687438  Gnorm:      1.889254  CPU:    0.142
  Cycle:      4 Energy:      -143.175261  Gnorm:      2.124326  CPU:    0.184
  Cycle:      5 Energy:      -144.541049  Gnorm:      1.478933  CPU:    0.221
  Cycle:      6 Energy:      -145.365809  Gnorm:      1.041968  CPU:    0.267
  Cycle:      7 Energy:      -146.282494  Gnorm:      0.910368  CPU:    0.315
  Cycle:      8 Energy:      -146.960653  Gnorm:      1.106606  CPU:    0.362
  Cycle:      9 Energy:      -147.803088  Gnorm:      1.294615  CPU:    0.400
  Cycle:     10 Energy:      -148.184044  Gnorm:      0.671429  CPU:    0.448
  Cycle:     11 Energy:      -148.562805  Gnorm:      0.700195  CPU:    0.495
  Cycle:     12 Energy:      -148.961840  Gnorm:      0.599532  CPU:    0.543
  Cycle:     13 Energy:      -149.270593  Gnorm:      0.833884  CPU:    0.590
  Cycle:     14 Energy:      -149.858108  Gnorm:      0.809077  CPU:    0.637
  Cycle:     15 Energy:      -150.255424  Gnorm:      0.763102  CPU:    0.675
  Cycle:     16 Energy:      -151.092407  Gnorm:      0.746474  CPU:    0.724
  Cycle:     17 Energy:      -151.403546  Gnorm:      0.504513  CPU:    0.762
  Cycle:     18 Energy:      -151.633420  Gnorm:      0.384105  CPU:    0.810
  ** Hessian calculated **
  Cycle:     19 Energy:      -151.817760  Gnorm:      0.342072  CPU:    0.888
  Cycle:     20 Energy:      -152.200489  Gnorm:      0.542432  CPU:    0.937
  Cycle:     21 Energy:      -152.483623  Gnorm:      0.723974  CPU:    0.978
  Cycle:     22 Energy:      -152.873967  Gnorm:      0.889465  CPU:    1.030
  Cycle:     23 Energy:      -153.489628  Gnorm:      0.783069  CPU:    1.086
  Cycle:     24 Energy:      -153.905926  Gnorm:      0.632692  CPU:    1.129
  Cycle:     25 Energy:      -154.290307  Gnorm:      0.526938  CPU:    1.187
  Cycle:     26 Energy:      -154.494530  Gnorm:      0.485451  CPU:    1.242
  Cycle:     27 Energy:      -154.694132  Gnorm:      0.382680  CPU:    1.286
  Cycle:     28 Energy:      -154.910731  Gnorm:      0.420254  CPU:    1.344
  ** Hessian calculated **
  Cycle:     29 Energy:      -155.011355  Gnorm:      0.300843  CPU:    1.435
  Cycle:     30 Energy:      -155.080167  Gnorm:      0.321620  CPU:    1.491
  Cycle:     31 Energy:      -155.164564  Gnorm:      0.298645  CPU:    1.546
  Cycle:     32 Energy:      -155.288353  Gnorm:      0.323680  CPU:    1.594
  Cycle:     33 Energy:      -155.454764  Gnorm:      0.421192  CPU:    1.636
  Cycle:     34 Energy:      -155.764555  Gnorm:      0.579077  CPU:    1.678
  Cycle:     35 Energy:      -156.025642  Gnorm:      0.493882  CPU:    1.713
  Cycle:     36 Energy:      -156.231176  Gnorm:      0.389557  CPU:    1.754
  Cycle:     37 Energy:      -156.492494  Gnorm:      0.375885  CPU:    1.796
  Cycle:     38 Energy:      -156.612767  Gnorm:      0.300666  CPU:    1.830
  ** Hessian calculated **
  Cycle:     39 Energy:      -157.001878  Gnorm:      0.408530  CPU:    1.919
  Cycle:     40 Energy:      -157.327178  Gnorm:      0.323819  CPU:    1.952
  Cycle:     41 Energy:      -157.426709  Gnorm:      0.453736  CPU:    1.984
  Cycle:     42 Energy:      -157.702623  Gnorm:      0.370857  CPU:    2.023
  Cycle:     43 Energy:      -157.871311  Gnorm:      0.133560  CPU:    2.056
  Cycle:     44 Energy:      -157.931946  Gnorm:      0.130159  CPU:    2.096
  Cycle:     45 Energy:      -157.958825  Gnorm:      0.076801  CPU:    2.128
  Cycle:     46 Energy:      -157.970731  Gnorm:      0.076284  CPU:    2.161
  Cycle:     47 Energy:      -157.979895  Gnorm:      0.053732  CPU:    2.201
  Cycle:     48 Energy:      -157.983401  Gnorm:      0.022258  CPU:    2.233
  ** Hessian calculated **
  Cycle:     49 Energy:      -157.984318  Gnorm:      0.000338  CPU:    2.311


  **** Optimisation achieved ****


  Final energy =    -157.98431806 eV      
  Final Gnorm  =       0.00001224

  Components of energy : 

--------------------------------------------------------------------------------
  Interatomic potentials     =          12.75853928 eV    
  Monopole - monopole (real) =         -71.50977413 eV    
  Monopole - monopole (recip)=         -99.23308321 eV    
  Monopole - monopole (total)=        -170.74285734 eV    
--------------------------------------------------------------------------------
  Total lattice energy       =        -157.98431806 eV    
--------------------------------------------------------------------------------
  Total lattice energy       =          -15243.0717 kJ/(mole unit cells)
--------------------------------------------------------------------------------

  Final fractional coordinates of atoms :

--------------------------------------------------------------------------------
   No.  Atomic        x           y          z          Radius
        Label       (Frac)      (Frac)     (Frac)       (Angs) 
--------------------------------------------------------------------------------
     1  Ti    c     0.525268    0.849267    0.825864    0.000000
     2  Ti    c     0.525268    0.349267    0.575865    0.000000
     3  Ti    c     0.025268    0.849267    0.325864    0.000000
     4  Ti    c     0.025268    0.349268    0.075865    0.000000
     5  O     c     0.733319    0.765370    0.991967    0.000000
     6  O     c     0.317216    0.933164    0.159761    0.000000
     7  O     c     0.233319    0.765371    0.491968    0.000000
     8  O     c     0.733320    0.265370    0.241968    0.000000
     9  O     c     0.233320    0.265371    0.741968    0.000000
    10  O     c     0.317216    0.433164    0.409762    0.000000
    11  O     c     0.817215    0.933164    0.659760    0.000000
    12  O     c     0.817217    0.433164    0.909762    0.000000
--------------------------------------------------------------------------------

  Final Cartesian lattice vectors (Angstroms) :

        5.272790   -0.714313   -0.349684
       -1.969648    6.788618   -2.909356
        0.045589   -2.069252    4.914361


  Final cell parameters and derivatives :

--------------------------------------------------------------------------------
       a            5.332433 Angstrom     dE/de1(xx)     0.000029 eV/strain
       b            7.643900 Angstrom     dE/de2(yy)     0.000072 eV/strain
       c            5.332431 Angstrom     dE/de3(zz)     0.000058 eV/strain
       alpha      134.235178 Degrees      dE/de4(yz)     0.000068 eV/strain
       beta        90.000000 Degrees      dE/de5(xz)    -0.000025 eV/strain
       gamma      110.414072 Degrees      dE/de6(xy)     0.000022 eV/strain
--------------------------------------------------------------------------------

  Primitive cell volume =           136.029667 Angs**3

  Density of cell =      3.900501 g/cm**3

  Non-primitive cell volume =           136.029667 Angs**3


  Final internal derivatives :

--------------------------------------------------------------------------------
   No.  Atomic          a             b             c           Radius
        Label          (eV)          (eV)          (eV)        (eV/Angs)
--------------------------------------------------------------------------------
      1 Ti    c       0.000000      0.000000      0.000000      0.000000
      2 Ti    c      -0.000001     -0.000034      0.000060      0.000000
      3 Ti    c       0.000036     -0.000045     -0.000016      0.000000
      4 Ti    c      -0.000010      0.000339     -0.000022      0.000000
      5 O     c       0.000017      0.000017     -0.000021      0.000000
      6 O     c       0.000004      0.000005     -0.000056      0.000000
      7 O     c      -0.000008      0.000012      0.000008      0.000000
      8 O     c       0.000000     -0.000047      0.000068      0.000000
      9 O     c       0.000019      0.000042      0.000019      0.000000
     10 O     c      -0.000016     -0.000039     -0.000008      0.000000
     11 O     c      -0.000029     -0.000265     -0.000002      0.000000
     12 O     c      -0.000012      0.000045     -0.000025      0.000000
--------------------------------------------------------------------------------
  Maximum abs         0.000036      0.000339      0.000068      0.000000
--------------------------------------------------------------------------------


  Time to end of optimisation =       2.3442 seconds


  Peak dynamic memory used =       1.84 MB 


  Timing analysis for GULP :

--------------------------------------------------------------------------------
  Task / Subroutine                                          Time (Seconds)
--------------------------------------------------------------------------------
  Calculation of reciprocal space energy and derivatives          0.0673
  Calculation of real space energy and derivatives                2.2562
  Calculation and manipulation of Hessian matrix                  0.0004
  Calculation of matrix inversion                                 0.0008
  Global summation overhead                                       0.0003
--------------------------------------------------------------------------------
  Total CPU time                                                  2.3443
--------------------------------------------------------------------------------


  Job Finished at 11:09.18 29th May        2024                               

