********************************************************************************
*                       GENERAL UTILITY LATTICE PROGRAM                        *
*                                 Julian Gale                                  *
*                       Curtin Institute for Computation                       *
*                    School of Molecular and Life Sciences                     *
*                    Curtin University, Western Australia                      *
********************************************************************************
* Version = 6.0.0 * Last modified =  12th July 2021                            *
********************************************************************************
*  optimise     - perform optimisation run                                     *
*  conp         - constant pressure calculation                                *
*  conjugate    - use conjugate gradients minimiser                            *
********************************************************************************

  Job Started  at 11:09.18 29th May        2024                               

  Number of CPUs =     1


  Total number of configurations input =      1

********************************************************************************
*  Input for Configuration =   1                                               *
********************************************************************************

  Formula = Ti4O8                                                       

  Number of irreducible atoms/shells =      12


  Total number atoms/shells =      12

  Dimensionality = 3               :  Bulk   



  Cartesian lattice vectors (Angstroms) :

        2.375151    0.123411   -4.085805
        0.395926    8.850356    0.788466
        0.179388    0.442483    6.154139

  Cell parameters (Angstroms/Degrees):

  a =       4.7276    alpha =  80.7346
  b =       8.8942    beta  = 147.6913
  c =       6.1726    gamma =  91.6202

  Initial cell volume =         134.024851 Angs**3

  Temperature of configuration =   0.00     K 

  Pressure of configuration =         0.000 GPa 

  Fractional coordinates of asymmetric unit :

--------------------------------------------------------------------------------
   No.  Atomic       x           y          z         Charge      Occupancy
        Label      (Frac)      (Frac)     (Frac)        (e)         (Frac)  
--------------------------------------------------------------------------------
      1 Ti    c    0.210513    0.938027    0.987791     2.19600    1.000000    
      2 Ti    c    0.143285 *  0.160730 *  0.055016 *   2.19600    1.000000    
      3 Ti    c    0.143282 *  0.782575 *  0.055021 *   2.19600    1.000000    
      4 Ti    c    0.210509 *  0.316177 *  0.987784 *   2.19600    1.000000    
      5 O     c    0.884521 *  0.290091 *  0.313758 *  -1.09800    1.000000    
      6 O     c    0.469268 *  0.808659 *  0.729046 *  -1.09800    1.000000    
      7 O     c    0.469267 *  0.186815 *  0.729035 *  -1.09800    1.000000    
      8 O     c    0.884535 *  0.911941 *  0.313787 *  -1.09800    1.000000    
      9 O     c    0.195464 *  0.067413 *  0.002873 *  -1.09800    1.000000    
     10 O     c    0.158327 *  0.653190 *  0.039951 *  -1.09800    1.000000    
     11 O     c    0.158326 *  0.031344 *  0.039951 *  -1.09800    1.000000    
     12 O     c    0.195453 *  0.445566 *  0.002846 *  -1.09800    1.000000    
--------------------------------------------------------------------------------



********************************************************************************
*  General input information                                                   *
********************************************************************************

  Species output for all configurations : 

--------------------------------------------------------------------------------
  Species    Type    Atomic    Atomic    Charge       Radii (Angs)     Library
                     Number     Mass       (e)     Cova   Ionic  VDW   Symbol
--------------------------------------------------------------------------------
    Ti       Core       22      47.88   2.196000   1.470  0.000  2.190          
    O        Core        8      16.00  -1.098000   0.730  0.000  1.360          
--------------------------------------------------------------------------------


  Lattice summation method               =    Ewald          (3-D)
                                         =    Parry          (2-D)
                                         =    Saunders et al (1-D)
  Accuracy factor for lattice sums       =   12.000


  Analytic derivatives to be used

  Time limit = Infinity

  Maximum range for interatomic potentials =    100000.000000 Angstroms

  General interatomic potentials :

--------------------------------------------------------------------------------
Atom  Types   Potential      Parameter       Value         Units   Cutoffs(Ang)
  1     2                                                            Min /  Max 
--------------------------------------------------------------------------------
Ti   c Ti   c Buckingham    Buckingham A     31120.100    eV        0.000 15.000
                            Buckingham rho  0.15400000    Ang       
                            Buckingham C     5.2500000    eV*Ang^6  
--------------------------------------------------------------------------------
O    c O    c Buckingham    Buckingham A     11782.700    eV        0.000 15.000
                            Buckingham rho  0.23400000    Ang       
                            Buckingham C     30.220000    eV*Ang^6  
--------------------------------------------------------------------------------
O    c Ti   c Buckingham    Buckingham A     16957.500    eV        0.000 15.000
                            Buckingham rho  0.19400000    Ang       
                            Buckingham C     12.590000    eV*Ang^6  
--------------------------------------------------------------------------------
Ti   c Ti   c Lennard       Lennard-Jones A  1.0000000    eV*Ang^m  0.000 15.000
                            Lennard-Jones B  0.0000000    eV*Ang^n  
                            Exponent m        12          None
                            Exponent n         6          None
--------------------------------------------------------------------------------
O    c O    c Lennard       Lennard-Jones A  1.0000000    eV*Ang^m  0.000 15.000
                            Lennard-Jones B  0.0000000    eV*Ang^n  
                            Exponent m        12          None
                            Exponent n         6          None
--------------------------------------------------------------------------------
O    c Ti   c Lennard       Lennard-Jones A  1.0000000    eV*Ang^m  0.000 15.000
                            Lennard-Jones B  0.0000000    eV*Ang^n  
                            Exponent m        12          None
                            Exponent n         6          None
--------------------------------------------------------------------------------

********************************************************************************
*  Output for configuration   1                                                *
********************************************************************************


  Components of energy : 

--------------------------------------------------------------------------------
  Interatomic potentials     =        6539.66867463 eV    
  Monopole - monopole (real) =         -45.74648397 eV    
  Monopole - monopole (recip)=         -94.25689628 eV    
  Monopole - monopole (total)=        -140.00338026 eV    
--------------------------------------------------------------------------------
  Total lattice energy       =        6399.66529437 eV    
--------------------------------------------------------------------------------
  Total lattice energy       =          617469.8731 kJ/(mole unit cells)
--------------------------------------------------------------------------------


  Number of variables =       39

  Maximum number of calculations  =          1000
  Maximum Hessian update interval =            10
  Maximum step size               =   1.000000000
  Maximum parameter tolerance     =   0.000010000
  Maximum function  tolerance     =   0.000010000
  Maximum gradient  tolerance     =   0.001000000
  Maximum gradient  component     =   0.010000000

  Symmetry not applied to optimisation

  Cell parameters to be optimised using strains

  Conjugate gradient optimiser to be used

  Lower half triangular hessian to be used

  Minimiser to switch to BFGS with exact hessian
  When gradient norm is less than     0.500000

  Start of bulk optimisation :

  Cycle:      0 Energy:      6399.665294  Gnorm:  43286.249579  CPU:    0.029
  Cycle:      1 Energy:        12.157488  Gnorm:     61.625986  CPU:    0.095
  Cycle:      2 Energy:       -21.222610  Gnorm:     29.634650  CPU:    0.154
  Cycle:      3 Energy:       -47.817835  Gnorm:     28.873299  CPU:    0.201
  Cycle:      4 Energy:       -67.737010  Gnorm:     21.259227  CPU:    0.246
  Cycle:      5 Energy:      -101.028016  Gnorm:     17.399356  CPU:    0.318
  Cycle:      6 Energy:      -119.018333  Gnorm:      8.519006  CPU:    0.362
  Cycle:      7 Energy:      -137.967394  Gnorm:      3.067563  CPU:    0.411
  Cycle:      8 Energy:      -142.329405  Gnorm:      2.234093  CPU:    0.450
  Cycle:      9 Energy:      -145.575590  Gnorm:      1.699675  CPU:    0.499
  Cycle:     10 Energy:      -146.890233  Gnorm:      1.785399  CPU:    0.530
  Cycle:     11 Energy:      -147.516200  Gnorm:      1.379081  CPU:    0.562
  Cycle:     12 Energy:      -148.678813  Gnorm:      1.132107  CPU:    0.602
  Cycle:     13 Energy:      -149.149237  Gnorm:      0.863421  CPU:    0.636
  Cycle:     14 Energy:      -149.406129  Gnorm:      0.678925  CPU:    0.669
  Cycle:     15 Energy:      -149.623377  Gnorm:      0.570789  CPU:    0.709
  Cycle:     16 Energy:      -149.840745  Gnorm:      0.587313  CPU:    0.751
  Cycle:     17 Energy:      -150.020546  Gnorm:      0.665438  CPU:    0.784
  Cycle:     18 Energy:      -150.347140  Gnorm:      0.972187  CPU:    0.826
  Cycle:     19 Energy:      -150.685020  Gnorm:      0.829743  CPU:    0.869
  Cycle:     20 Energy:      -150.882224  Gnorm:      0.601030  CPU:    0.913
  Cycle:     21 Energy:      -151.095772  Gnorm:      0.463963  CPU:    0.969
  ** Hessian calculated **
  Cycle:     22 Energy:      -151.560969  Gnorm:      0.358922  CPU:    1.081
  ** Hessian calculated **
  Cycle:     23 Energy:      -151.684794  Gnorm:      0.289333  CPU:    1.159
  Cycle:     24 Energy:      -151.788610  Gnorm:      0.372992  CPU:    1.213
  Cycle:     25 Energy:      -151.949528  Gnorm:      0.385773  CPU:    1.268
  Cycle:     26 Energy:      -152.128358  Gnorm:      0.360510  CPU:    1.321
  Cycle:     27 Energy:      -152.307658  Gnorm:      0.440027  CPU:    1.376
  Cycle:     28 Energy:      -152.410450  Gnorm:      0.289386  CPU:    1.418
  Cycle:     29 Energy:      -152.461939  Gnorm:      0.238499  CPU:    1.461
  Cycle:     30 Energy:      -152.520121  Gnorm:      0.269610  CPU:    1.516
  Cycle:     31 Energy:      -152.725574  Gnorm:      0.520647  CPU:    1.580
  Cycle:     32 Energy:      -152.869245  Gnorm:      0.610419  CPU:    1.627
  ** Hessian calculated **
  Cycle:     33 Energy:      -153.277943  Gnorm:      0.453289  CPU:    1.719
  Cycle:     34 Energy:      -153.508940  Gnorm:      0.423850  CPU:    1.776
  Cycle:     35 Energy:      -153.901665  Gnorm:      0.918784  CPU:    1.832
  Cycle:     36 Energy:      -154.317343  Gnorm:      0.952185  CPU:    1.883
  Cycle:     37 Energy:      -154.754794  Gnorm:      0.902445  CPU:    1.954
  Cycle:     38 Energy:      -155.418014  Gnorm:      0.822284  CPU:    2.016
  Cycle:     39 Energy:      -156.512809  Gnorm:      0.765059  CPU:    2.074
  Cycle:     40 Energy:      -157.174865  Gnorm:      0.701687  CPU:    2.123
  Cycle:     41 Energy:      -157.500921  Gnorm:      0.404046  CPU:    2.172
  Cycle:     42 Energy:      -157.709581  Gnorm:      0.310499  CPU:    2.236
  ** Hessian calculated **
  Cycle:     43 Energy:      -157.972824  Gnorm:      0.088562  CPU:    2.341
  Cycle:     44 Energy:      -157.982051  Gnorm:      0.024042  CPU:    2.405
  Cycle:     45 Energy:      -157.984048  Gnorm:      0.011796  CPU:    2.455
  Cycle:     46 Energy:      -157.984293  Gnorm:      0.003929  CPU:    2.518
  Cycle:     47 Energy:      -157.984315  Gnorm:      0.001368  CPU:    2.567


  **** Optimisation achieved ****


  Final energy =    -157.98431776 eV      
  Final Gnorm  =       0.00046526

  Components of energy : 

--------------------------------------------------------------------------------
  Interatomic potentials     =          12.75933488 eV    
  Monopole - monopole (real) =         -71.51005926 eV    
  Monopole - monopole (recip)=         -99.23359339 eV    
  Monopole - monopole (total)=        -170.74365264 eV    
--------------------------------------------------------------------------------
  Total lattice energy       =        -157.98431776 eV    
--------------------------------------------------------------------------------
  Total lattice energy       =          -15243.0717 kJ/(mole unit cells)
--------------------------------------------------------------------------------

  Final fractional coordinates of atoms :

--------------------------------------------------------------------------------
   No.  Atomic        x           y          z          Radius
        Label       (Frac)      (Frac)     (Frac)       (Angs) 
--------------------------------------------------------------------------------
     1  Ti    c     0.210513    0.938027    0.987791    0.000000
     2  Ti    c     0.960563    0.063024    0.237837    0.000000
     3  Ti    c     0.960576    0.563028    0.237840    0.000000
     4  Ti    c     0.210511    0.438030    0.987782    0.000000
     5  O     c     0.752485    0.459005    0.445848    0.000000
     6  O     c     0.418613    0.542054    0.779772    0.000000
     7  O     c     0.418603    0.042049    0.779779    0.000000
     8  O     c     0.752467    0.959011    0.445856    0.000000
     9  O     c     0.168556    0.167055    0.029727    0.000000
    10  O     c     0.168553    0.667056    0.029710    0.000000
    11  O     c     0.002533    0.834002    0.195911    0.000000
    12  O     c     0.002546    0.334001    0.195912    0.000000
--------------------------------------------------------------------------------

  Final Cartesian lattice vectors (Angstroms) :

        3.933025   -0.605690   -3.762567
       -1.134602    7.319967    1.414298
       -0.537731    0.817833    5.388680


  Final cell parameters and derivatives :

--------------------------------------------------------------------------------
       a            5.476537 Angstrom     dE/de1(xx)    -0.003522 eV/strain
       b            7.541185 Angstrom     dE/de2(yy)    -0.002390 eV/strain
       c            5.476849 Angstrom     dE/de3(zz)    -0.001496 eV/strain
       alpha       69.864532 Degrees      dE/de4(yz)    -0.000046 eV/strain
       beta       139.729330 Degrees      dE/de5(xz)     0.001342 eV/strain
       gamma      110.136108 Degrees      dE/de6(xy)     0.000244 eV/strain
--------------------------------------------------------------------------------

  Primitive cell volume =           136.027537 Angs**3

  Density of cell =      3.900562 g/cm**3

  Non-primitive cell volume =           136.027537 Angs**3


  Final internal derivatives :

--------------------------------------------------------------------------------
   No.  Atomic          a             b             c           Radius
        Label          (eV)          (eV)          (eV)        (eV/Angs)
--------------------------------------------------------------------------------
      1 Ti    c       0.000000      0.000000      0.000000      0.000000
      2 Ti    c       0.002244     -0.005564     -0.003604      0.000000
      3 Ti    c       0.001986      0.001921     -0.001095      0.000000
      4 Ti    c      -0.006394      0.005087      0.003865      0.000000
      5 O     c       0.004254     -0.000797     -0.000512      0.000000
      6 O     c      -0.002258     -0.000048     -0.000448      0.000000
      7 O     c      -0.001830      0.001096      0.000552      0.000000
      8 O     c      -0.002521      0.004702      0.003440      0.000000
      9 O     c      -0.001467      0.001347      0.001021      0.000000
     10 O     c       0.002344     -0.003429     -0.003802      0.000000
     11 O     c      -0.000701      0.004785      0.002163      0.000000
     12 O     c       0.004282     -0.003200     -0.002169      0.000000
--------------------------------------------------------------------------------
  Maximum abs         0.006394      0.005564      0.003865      0.000000
--------------------------------------------------------------------------------


  Time to end of optimisation =       2.6193 seconds


  Peak dynamic memory used =       1.84 MB 


  Timing analysis for GULP :

--------------------------------------------------------------------------------
  Task / Subroutine                                          Time (Seconds)
--------------------------------------------------------------------------------
  Calculation of reciprocal space energy and derivatives          0.0729
  Calculation of real space energy and derivatives                2.5265
  Calculation and manipulation of Hessian matrix                  0.0004
  Calculation of matrix inversion                                 0.0008
  Global summation overhead                                       0.0003
--------------------------------------------------------------------------------
  Total CPU time                                                  2.6193
--------------------------------------------------------------------------------


  Job Finished at 11:09.20 29th May        2024                               

