 *******************************************************************************
 ** Cite this program as: MOPAC2016, Version: 22.047L, James J. P. Stewart,   **
 **                           web-site: HTTP://OpenMOPAC.net.                 **
 *******************************************************************************
 **                                                                           **
 **                                MOPAC2016                                  **
 **                                                                           **
 *******************************************************************************

                              MNDO CALCULATION RESULTS

 *******************************************************************************
 *  CALCULATION DONE:                                Wed Apr 10 18:39:10 2024  *
 *  MNDO       - The MNDO Hamiltonian to be used
 *  GEO-OK     - OVERRIDE INTERATOMIC DISTANCE AND OTHER SAFETY CHECKS
 *  SINGLET    - SPIN STATE DEFINED AS A SINGLET
 *
 *
 *
 *                 CHARGE ON SYSTEM = 0
 *
 *
 *
 *  XYZ        - CARTESIAN COORDINATE SYSTEM TO BE USED
 *  T=         - A TIME OF 172800.0 SECONDS REQUESTED
 *  DUMP=N     - RESTART FILE WRITTEN EVERY 7200.0 SECONDS REQUESTED
 *  GNORM      - EXIT WHEN GRADIENT NORM DROPS BELOW 0.010
 *  PRTXYZ     - PRINT CARTESIAN COORDINATES
 *  DISP       - PRINT DISPERSION AND HYDROGEN BOND ENERGIES
 *******************************************************************************
CHARGE=0 SINGLET MNDO GNORM=0.01 xyz PRTXYZ DISP GEO-OK

 All coordinates are Cartesian
   ATOM   CHEMICAL          X               Y               Z
  NUMBER   SYMBOL      (ANGSTROMS)     (ANGSTROMS)     (ANGSTROMS)
 
     1       C          1.30424300  *   1.35396000  *   1.50000000  *
     2       C          2.15733900  *   1.35396000  *   1.50000000  *
     3       C          0.86539500  *   0.67698000  *   1.50000000  *
     4       C          1.71849100  *   0.67698000  *   1.50000000  *
     5      Tv          1.43169415  *   0.92808551  *   0.00000000  *
     6      Tv          0.00000000  *   1.61355348  *   0.00000000  *
     7      Tv          0.00000000  *   0.00000000  *   3.00000000  *
 

                   THE SYSTEM IS A SOLID


                UNIT CELL TRANSLATION VECTORS

              X                Y              Z
    T1 =     1.4316941      0.9280855      0.0000000
    T2 =     0.0000000      1.6135535      0.0000000
    T3 =     0.0000000      0.0000000      3.0000000


          CARTESIAN COORDINATES 

    NO.       ATOM           X           Y           Z

     1         C          1.3042      1.3540      1.5000
     2         C          2.1573      1.3540      1.5000
     3         C          0.8654      0.6770      1.5000
     4         C          1.7185      0.6770      1.5000

  C: (MNDO): M.J.S. DEWAR, W. THIEL, J. AM. CHEM. SOC., 99, 4899, (1977)

           Empirical Formula: C4  =     4 atoms



 SINGLET STATE CALCULATION


      RHF CALCULATION, NO. OF DOUBLY OCCUPIED LEVELS = 8


          Geometry optimization using EF

          DIAGONAL MATRIX USED AS START HESSIAN

 CYCLE:     1 TIME:   4.250 TIME LEFT:  2.00D  GRAD.: 17252.387 HEAT:  8722.728
 CYCLE:     2 TIME:   1.883 TIME LEFT:  2.00D  GRAD.:  5924.593 HEAT:  6272.482
 CYCLE:     3 TIME:   1.945 TIME LEFT:  2.00D  GRAD.:  4633.816 HEAT:  5410.672
 CYCLE:     4 TIME:   1.875 TIME LEFT:  2.00D  GRAD.:  4755.774 HEAT:  3700.325
 CYCLE:     5 TIME:   2.023 TIME LEFT:  2.00D  GRAD.:  5598.971 HEAT:  2468.397
 CYCLE:     6 TIME:   7.367 TIME LEFT:  2.00D  GRAD.:  6465.116 HEAT:  2406.798
 CYCLE:     7 TIME:   2.367 TIME LEFT:  2.00D  GRAD.:  5113.319 HEAT:  2301.906
 CYCLE:     8 TIME:   9.797 TIME LEFT:  2.00D  GRAD.:  5100.040 HEAT:  2288.500
 NUMERICAL PROBLEMS IN BRACKETING LAMDA  0.674367012272914     
  -1000000.00000000       0.674367012262914       1.074337067350706E-005
  6.041855611347942E+028
  GOING FOR FIXED LEVEL SHIFTED NR STEP...
 CYCLE:     9 TIME:   7.320 TIME LEFT:  2.00D  GRAD.:  5131.935 HEAT:  2285.808
 CYCLE:    10 TIME:   9.703 TIME LEFT:  2.00D  GRAD.:  5154.316 HEAT:  2284.692
 CYCLE:    11 TIME:   4.797 TIME LEFT:  2.00D  GRAD.:  5158.716 HEAT:  2284.102

     TRUST RADIUS NOW LESS THAN  0.00010 OPTIMIZATION TERMINATING
      THE GEOMETRY MAY NOT BE COMPLETELY OPTIMIZED
      (TO CONTINUE, ADD 'LET DDMIN=0.0' TO THE KEYWORD LINE)

 -------------------------------------------------------------------------------
 CHARGE=0 SINGLET MNDO GNORM=0.01 xyz PRTXYZ DISP GEO-OK

 All coordinates are Cartesian


     GEOMETRY OPTIMISED USING EIGENVECTOR FOLLOWING (EF).     
     SCF FIELD WAS ACHIEVED                                   


                              MNDO CALCULATION
                                                       MOPAC2016 (Version: 22.047L)
                                                       Wed Apr 10 18:40:09 2024




          FINAL HEAT OF FORMATION =       2283.46955 KCAL/MOL =    9554.03659 KJ/MOL

          TOTAL ENERGY            =      -9515.32133 KCAL/MOL = ELECTRONIC ENERGY + CORE-CORE REPULSION 
          ENERGY OF ATOMS         =      11798.79088 KCAL/MOL
                              SUM =       2283.46955 KCAL/MOL
          DISPERSION ENERGY       =          0.00000 KCAL/MOL
                              SUM =       2283.46955 KCAL/MOL = FINAL HEAT OF FORMATION

          H.o.F. per unit cell    =        570.86739 KCAL, for 4 unit cells, unit cell = C1


          TOTAL ENERGY            =       -412.62372 EV
          ELECTRONIC ENERGY       =   -8352018.93123 EV 
          CORE-CORE REPULSION     =    8351606.30751 EV

          GRADIENT NORM           =       5158.71563          =       2579.35782 PER ATOM
          IONIZATION POTENTIAL    =         18.981307 EV
          HOMO LUMO ENERGIES (EV) =        -18.981-10.361
          NO. OF FILLED LEVELS    =          8
          MOLECULAR WEIGHT        =         48.0440         POINT GROUP:  C2h 

          VOLUME OF UNIT CELL     =          5.143 CUBIC ANGSTROMS

          DENSITY                 =         15.511 GRAMS/CC
                              A   =          2.061 ANGSTROMS
                              B   =          1.720 ANGSTROMS
                              C   =          1.849 ANGSTROMS
                            ALPHA =         80.100 DEGREES
                            BETA  =         97.171 DEGREES
                            GAMMA =         55.861 DEGREES
 
           Pressure required to constrain translation vectors
           Tv(   5)  Pressure:******* GPa
           Tv(   6)  Pressure:******* GPa
           Tv(   7)  Pressure:******* GPa


          SCF CALCULATIONS        =         26
 
          WALL-CLOCK TIME         =         58.820 SECONDS
          COMPUTATION TIME        =  1 MINUTE AND  9.767 SECONDS



       FINAL  POINT  AND  DERIVATIVES

   PARAMETER     ATOM    TYPE            VALUE        GRADIENT
      1          1  C    CARTESIAN X     1.144448   -109.620542  KCAL/ANGSTROM
      2          1  C    CARTESIAN Y     1.630939   -316.366351  KCAL/ANGSTROM
      3          1  C    CARTESIAN Z     1.354333    808.519458  KCAL/ANGSTROM
      4          2  C    CARTESIAN X     2.017119   -478.202528  KCAL/ANGSTROM
      5          2  C    CARTESIAN Y     1.228596   -164.134273  KCAL/ANGSTROM
      6          2  C    CARTESIAN Z     1.542466   -215.255983  KCAL/ANGSTROM
      7          3  C    CARTESIAN X     0.998086    183.688790  KCAL/ANGSTROM
      8          3  C    CARTESIAN Y     0.810234     23.633209  KCAL/ANGSTROM
      9          3  C    CARTESIAN Z     1.218218    538.480131  KCAL/ANGSTROM
     10          4  C    CARTESIAN X     1.887266    404.134287  KCAL/ANGSTROM
     11          4  C    CARTESIAN Y     0.380818    456.867419  KCAL/ANGSTROM
     12          4  C    CARTESIAN Z     1.806120  -1131.743597  KCAL/ANGSTROM
     13          5 Tv    CARTESIAN X     1.721491   2554.093023  KCAL/ANGSTROM
     14          5 Tv    CARTESIAN Y     1.107020   -186.232915  KCAL/ANGSTROM
     15          5 Tv    CARTESIAN Z    -0.242862    -64.248303  KCAL/ANGSTROM
     16          6 Tv    CARTESIAN X     0.102108  -1329.818908  KCAL/ANGSTROM
     17          6 Tv    CARTESIAN Y     1.696057   1947.161228  KCAL/ANGSTROM
     18          6 Tv    CARTESIAN Z     0.264763   -567.155285  KCAL/ANGSTROM
     19          7 Tv    CARTESIAN X    -0.038829   -273.736815  KCAL/ANGSTROM
     20          7 Tv    CARTESIAN Y     0.036128   -325.661543  KCAL/ANGSTROM
     21          7 Tv    CARTESIAN Z     1.848502   3307.978216  KCAL/ANGSTROM




   ATOM   CHEMICAL          X               Y               Z
  NUMBER   SYMBOL      (ANGSTROMS)     (ANGSTROMS)     (ANGSTROMS)
 
     1       C          1.14444801  *   1.63093921  *   1.35433275  *
     2       C          2.01711878  *   1.22859571  *   1.54246580  *
     3       C          0.99808644  *   0.81023369  *   1.21821798  *
     4       C          1.88726582  *   0.38081782  *   1.80611989  *
     5      Tv          1.72149089  *   1.10702009  *  -0.24286180  *
     6      Tv          0.10210765  *   1.69605748  *   0.26476331  *
     7      Tv         -0.03882876  *   0.03612786  *   1.84850196  *

                             CARTESIAN COORDINATES

   1    C        1.144448010     1.630939210     1.354332746
   2    C        2.017118782     1.228595709     1.542465796
   3    C        0.998086443     0.810233688     1.218217980
   4    C        1.887265818     0.380817822     1.806119894


           Empirical Formula: C4  =     4 atoms



                  EIGENVALUES  
-246.73320 -30.16381 -28.41470 -25.04797 -22.83016 -20.98352 -19.85403 -18.98131
 -10.36129  -9.33080  -9.16537  -8.96090  -7.72102  -4.78757  -3.52747  -1.87289


              NET ATOMIC CHARGES AND DIPOLE CONTRIBUTIONS

  ATOM NO.   TYPE          CHARGE      No. of ELECS.   s-Pop       p-Pop       
    1          C           0.402847        3.5972     0.61584     2.98132
    2          C          -1.078752        5.0788     0.60270     4.47605
    3          C           0.122004        3.8780     0.63504     3.24296
    4          C           0.553902        3.4461     0.66432     2.78178


          ATOMIC ORBITAL ELECTRON POPULATIONS

     Atom    s        px        py        pz   
    1  C   0.61584   1.19476   0.96297   0.82358
    2  C   0.60270   1.49265   1.25167   1.73173
    3  C   0.63504   1.43779   0.95735   0.84782
    4  C   0.66432   1.28542   0.62826   0.86810

 **********************
 *                    *
 * JOB ENDED NORMALLY *
 *                    *
 **********************



 TOTAL JOB TIME:            58.82 SECONDS

 == MOPAC DONE ==
